
     Program PWSCF v.7.2 starts on 20Mar2025 at 10:41:57 

     This program is part of the open-source Quantum ESPRESSO suite
     for quantum simulation of materials; please cite
         "P. Giannozzi et al., J. Phys.:Condens. Matter 21 395502 (2009);
         "P. Giannozzi et al., J. Phys.:Condens. Matter 29 465901 (2017);
         "P. Giannozzi et al., J. Chem. Phys. 152 154105 (2020);
          URL http://www.quantum-espresso.org", 
     in publications or presentations arising from this work. More details at
     http://www.quantum-espresso.org/quote

     Serial version
     2244 MiB available memory on the printing compute node when the environment starts

     Waiting for input...
     Reading input from standard input

     Current dimensions of program PWSCF are:
     Max number of different atomic species (ntypx) = 10
     Max number of k-points (npk) =  40000
     Max angular momentum in pseudopotentials (lmaxx) =  4
     file C.pbe-n-kjpaw_psl.1.0.0.UPF: wavefunction(s)  2S 2P renormalized


     G-vector sticks info
     --------------------
     sticks:   dense  smooth     PW     G-vecs:    dense   smooth      PW
     Sum         301     121     37                12531     3147     647

     Using Slab Decomposition



     bravais-lattice index     =            4
     lattice parameter (alat)  =       4.6540  a.u.
     unit-cell volume          =     261.8973 (a.u.)^3
     number of atoms/cell      =            2
     number of atomic types    =            1
     number of electrons       =         8.00
     number of Kohn-Sham states=            4
     kinetic-energy cutoff     =      20.0000  Ry
     charge density cutoff     =     200.0000  Ry
     scf convergence threshold =      1.0E-08
     mixing beta               =       0.7000
     number of iterations used =            8  plain     mixing
     Exchange-correlation= SLA  PW   PBX  PBC
                           (   1   4   3   4   0   0   0)

     celldm(1)=   4.654000  celldm(2)=   0.000000  celldm(3)=   3.000000
     celldm(4)=   0.000000  celldm(5)=   0.000000  celldm(6)=   0.000000

     crystal axes: (cart. coord. in units of alat)
               a(1) = (   1.000000   0.000000   0.000000 )  
               a(2) = (  -0.500000   0.866025   0.000000 )  
               a(3) = (   0.000000   0.000000   3.000000 )  

     reciprocal axes: (cart. coord. in units 2 pi/alat)
               b(1) = (  1.000000  0.577350 -0.000000 )  
               b(2) = (  0.000000  1.154701  0.000000 )  
               b(3) = (  0.000000 -0.000000  0.333333 )  


     PseudoPot. # 1 for C  read from file:
     /root/Desktop/pseudo/C.pbe-n-kjpaw_psl.1.0.0.UPF
     MD5 check sum: 5d2aebdfa2cae82b50a7e79e9516da0f
     Pseudo is Projector augmented-wave + core cor, Zval =  4.0
     Generated using "atomic" code by A. Dal Corso  v.5.1
     Shape of augmentation charge: PSQ
     Using radial grid of 1073 points,  4 beta functions with: 
                l(1) =   0
                l(2) =   0
                l(3) =   1
                l(4) =   1
     Q(r) pseudized with 0 coefficients 


     atomic species   valence    mass     pseudopotential
        C              4.00    12.01070     C ( 1.00)

     24 Sym. Ops., with inversion, found (12 have fractional translation)



   Cartesian axes

     site n.     atom                  positions (alat units)
         1           C   tau(   1) = (   0.0000000   0.0000000   0.0000000  )
         2           C   tau(   2) = (   0.0000000   0.5773503   0.0000000  )

     number of k points=    12
                       cart. coord. in units 2pi/alat
        k(    1) = (   0.0000000   0.0000000   0.0000000), wk =   0.0246914
        k(    2) = (   0.0000000   0.1283001   0.0000000), wk =   0.1481481
        k(    3) = (   0.0000000   0.2566001   0.0000000), wk =   0.1481481
        k(    4) = (   0.0000000   0.3849002   0.0000000), wk =   0.1481481
        k(    5) = (   0.0000000   0.5132002   0.0000000), wk =   0.1481481
        k(    6) = (   0.1111111   0.1924501   0.0000000), wk =   0.1481481
        k(    7) = (   0.1111111   0.3207501   0.0000000), wk =   0.2962963
        k(    8) = (   0.1111111   0.4490502   0.0000000), wk =   0.2962963
        k(    9) = (   0.1111111   0.5773503   0.0000000), wk =   0.1481481
        k(   10) = (   0.2222222   0.3849002   0.0000000), wk =   0.1481481
        k(   11) = (   0.2222222   0.5132002   0.0000000), wk =   0.2962963
        k(   12) = (   0.3333333   0.5773503   0.0000000), wk =   0.0493827

     Dense  grid:    12531 G-vectors     FFT dimensions: (  24,  24,  64)

     Smooth grid:     3147 G-vectors     FFT dimensions: (  15,  15,  40)

     Estimated max dynamical RAM per process >      17.01 MB

     Check: negative core charge=   -0.000041

     Initial potential from superposition of free atoms

     starting charge       7.9999, renormalised to       8.0000
     Starting wfcs are    8 randomized atomic wfcs

     total cpu time spent up to now is        0.9 secs

     Self-consistent Calculation

     iteration #  1     ecut=    20.00 Ry     beta= 0.70
     Davidson diagonalization with overlap
     ethr =  1.00E-02,  avg # of iterations =  2.0

     negative rho (up, down):  1.459E-07 0.000E+00

     total cpu time spent up to now is        1.4 secs

     total energy              =     -36.72281988 Ry
     estimated scf accuracy    <       0.16505562 Ry

     iteration #  2     ecut=    20.00 Ry     beta= 0.70
     Davidson diagonalization with overlap
     ethr =  2.06E-03,  avg # of iterations =  2.0

     negative rho (up, down):  1.373E-06 0.000E+00

     total cpu time spent up to now is        1.8 secs

     total energy              =     -36.74401525 Ry
     estimated scf accuracy    <       0.00253962 Ry

     iteration #  3     ecut=    20.00 Ry     beta= 0.70
     Davidson diagonalization with overlap
     ethr =  3.17E-05,  avg # of iterations =  1.9

     negative rho (up, down):  8.556E-06 0.000E+00

     total cpu time spent up to now is        2.5 secs

     total energy              =     -36.74422906 Ry
     estimated scf accuracy    <       0.00015607 Ry

     iteration #  4     ecut=    20.00 Ry     beta= 0.70
     Davidson diagonalization with overlap
     ethr =  1.95E-06,  avg # of iterations =  2.1

     negative rho (up, down):  5.657E-06 0.000E+00

     total cpu time spent up to now is        3.5 secs

     total energy              =     -36.74425152 Ry
     estimated scf accuracy    <       0.00000054 Ry

     iteration #  5     ecut=    20.00 Ry     beta= 0.70
     Davidson diagonalization with overlap
     ethr =  6.71E-09,  avg # of iterations =  4.8

     negative rho (up, down):  5.360E-06 0.000E+00

     total cpu time spent up to now is        4.4 secs

     total energy              =     -36.74425355 Ry
     estimated scf accuracy    <       0.00000005 Ry

     iteration #  6     ecut=    20.00 Ry     beta= 0.70
     Davidson diagonalization with overlap
     ethr =  6.54E-10,  avg # of iterations =  2.1

     negative rho (up, down):  5.331E-06 0.000E+00

     total cpu time spent up to now is        4.9 secs

     End of self-consistent calculation

          k = 0.0000 0.0000 0.0000 (   397 PWs)   bands (ev):

   -18.8975  -6.6609  -1.9941  -1.9941

          k = 0.0000 0.1283 0.0000 (   399 PWs)   bands (ev):

   -18.6000  -6.3313  -3.1741  -2.5782

          k = 0.0000 0.2566 0.0000 (   394 PWs)   bands (ev):

   -17.7177  -5.7633  -5.2952  -3.7718

          k = 0.0000 0.3849 0.0000 (   398 PWs)   bands (ev):

   -16.2736  -8.7669  -4.8387  -3.6578

          k = 0.0000 0.5132 0.0000 (   396 PWs)   bands (ev):

   -14.3474 -11.5952  -5.4041  -1.7564

          k = 0.1111 0.1925 0.0000 (   409 PWs)   bands (ev):

   -18.0125  -5.6558  -4.7740  -3.8118

          k = 0.1111 0.3208 0.0000 (   398 PWs)   bands (ev):

   -16.8510  -7.2789  -5.1955  -4.2998

          k = 0.1111 0.4491 0.0000 (   389 PWs)   bands (ev):

   -15.1479 -10.0969  -6.0573  -2.4275

          k = 0.1111 0.5774 0.0000 (   386 PWs)   bands (ev):

   -13.4074 -12.2569  -6.3713  -1.0475

          k = 0.2222 0.3849 0.0000 (   395 PWs)   bands (ev):

   -15.4288  -8.8543  -7.2466  -2.6928

          k = 0.2222 0.5132 0.0000 (   394 PWs)   bands (ev):

   -13.5518 -11.0058  -8.2690  -0.7856

          k = 0.3333 0.5774 0.0000 (   381 PWs)   bands (ev):

   -11.8600 -11.8600  -9.6066   1.0575

     highest occupied level (ev):     1.0575

!    total energy              =     -36.74425357 Ry
     total all-electron energy =      -152.272449 Ry
     estimated scf accuracy    <          2.7E-10 Ry

     The total energy is the sum of the following terms:
     one-electron contribution =     -55.68085853 Ry
     hartree contribution      =      30.21048632 Ry
     xc contribution           =      -9.24388999 Ry
     ewald contribution        =      10.31064953 Ry
     one-center paw contrib.   =     -12.34064090 Ry

     convergence has been achieved in   6 iterations

     Writing all to output data dir ./graphene.save/

     init_run     :      1.00s CPU      0.81s WALL (       1 calls)
     electrons    :      5.25s CPU      4.04s WALL (       1 calls)

     Called by init_run:
     wfcinit      :      0.44s CPU      0.22s WALL (       1 calls)
     potinit      :      0.21s CPU      0.25s WALL (       1 calls)
     hinit0       :      0.32s CPU      0.32s WALL (       1 calls)

     Called by electrons:
     c_bands      :      2.03s CPU      1.45s WALL (       6 calls)
     sum_band     :      0.32s CPU      0.24s WALL (       6 calls)
     v_of_rho     :      0.57s CPU      0.28s WALL (       7 calls)
     newd         :      1.09s CPU      1.18s WALL (       7 calls)
     PAW_pot      :      0.99s CPU      0.75s WALL (       7 calls)
     mix_rho      :      0.02s CPU      0.01s WALL (       6 calls)

     Called by c_bands:
     init_us_2    :      0.06s CPU      0.03s WALL (     156 calls)
     init_us_2:cp :      0.06s CPU      0.03s WALL (     156 calls)
     cegterg      :      1.01s CPU      0.62s WALL (      72 calls)

     Called by *egterg:
     cdiaghg      :      0.05s CPU      0.02s WALL (     251 calls)
     h_psi        :      1.00s CPU      0.57s WALL (     263 calls)
     s_psi        :      0.30s CPU      0.20s WALL (     263 calls)
     g_psi        :      0.00s CPU      0.00s WALL (     179 calls)

     Called by h_psi:
     h_psi:calbec :      0.22s CPU      0.18s WALL (     263 calls)
     vloc_psi     :      0.74s CPU      0.36s WALL (     263 calls)
     add_vuspsi   :      0.04s CPU      0.02s WALL (     263 calls)

     General routines
     calbec       :      0.23s CPU      0.19s WALL (     335 calls)
     fft          :      0.40s CPU      0.34s WALL (      89 calls)
     ffts         :      0.14s CPU      0.14s WALL (      13 calls)
     fftw         :      0.69s CPU      0.32s WALL (    2136 calls)
     interpolate  :      0.14s CPU      0.15s WALL (       7 calls)


     PWSCF        :      6.53s CPU      5.45s WALL


   This run was terminated on:  10:42: 3  20Mar2025            

=------------------------------------------------------------------------------=
   JOB DONE.
=------------------------------------------------------------------------------=
