
     Program PWSCF v.7.2 starts on 20Mar2025 at 10:42:34 

     This program is part of the open-source Quantum ESPRESSO suite
     for quantum simulation of materials; please cite
         "P. Giannozzi et al., J. Phys.:Condens. Matter 21 395502 (2009);
         "P. Giannozzi et al., J. Phys.:Condens. Matter 29 465901 (2017);
         "P. Giannozzi et al., J. Chem. Phys. 152 154105 (2020);
          URL http://www.quantum-espresso.org", 
     in publications or presentations arising from this work. More details at
     http://www.quantum-espresso.org/quote

     Serial version
     2233 MiB available memory on the printing compute node when the environment starts

     Waiting for input...
     Reading input from standard input

     Current dimensions of program PWSCF are:
     Max number of different atomic species (ntypx) = 10
     Max number of k-points (npk) =  40000
     Max angular momentum in pseudopotentials (lmaxx) =  4
     file C.pbe-n-kjpaw_psl.1.0.0.UPF: wavefunction(s)  2S 2P renormalized


     G-vector sticks info
     --------------------
     sticks:   dense  smooth     PW     G-vecs:    dense   smooth      PW
     Sum         301     241     85                12531     8973    1713

     Using Slab Decomposition



     bravais-lattice index     =            4
     lattice parameter (alat)  =       4.6540  a.u.
     unit-cell volume          =     261.8973 (a.u.)^3
     number of atoms/cell      =            2
     number of atomic types    =            1
     number of electrons       =         8.00
     number of Kohn-Sham states=            4
     kinetic-energy cutoff     =      40.0000  Ry
     charge density cutoff     =     200.0000  Ry
     scf convergence threshold =      1.0E-08
     mixing beta               =       0.7000
     number of iterations used =            8  plain     mixing
     Exchange-correlation= SLA  PW   PBX  PBC
                           (   1   4   3   4   0   0   0)

     celldm(1)=   4.654000  celldm(2)=   0.000000  celldm(3)=   3.000000
     celldm(4)=   0.000000  celldm(5)=   0.000000  celldm(6)=   0.000000

     crystal axes: (cart. coord. in units of alat)
               a(1) = (   1.000000   0.000000   0.000000 )  
               a(2) = (  -0.500000   0.866025   0.000000 )  
               a(3) = (   0.000000   0.000000   3.000000 )  

     reciprocal axes: (cart. coord. in units 2 pi/alat)
               b(1) = (  1.000000  0.577350 -0.000000 )  
               b(2) = (  0.000000  1.154701  0.000000 )  
               b(3) = (  0.000000 -0.000000  0.333333 )  


     PseudoPot. # 1 for C  read from file:
     /root/Desktop/pseudo/C.pbe-n-kjpaw_psl.1.0.0.UPF
     MD5 check sum: 5d2aebdfa2cae82b50a7e79e9516da0f
     Pseudo is Projector augmented-wave + core cor, Zval =  4.0
     Generated using "atomic" code by A. Dal Corso  v.5.1
     Shape of augmentation charge: PSQ
     Using radial grid of 1073 points,  4 beta functions with: 
                l(1) =   0
                l(2) =   0
                l(3) =   1
                l(4) =   1
     Q(r) pseudized with 0 coefficients 


     atomic species   valence    mass     pseudopotential
        C              4.00    12.01070     C ( 1.00)

     24 Sym. Ops., with inversion, found (12 have fractional translation)



   Cartesian axes

     site n.     atom                  positions (alat units)
         1           C   tau(   1) = (   0.0000000   0.0000000   0.0000000  )
         2           C   tau(   2) = (   0.0000000   0.5773503   0.0000000  )

     number of k points=    12
                       cart. coord. in units 2pi/alat
        k(    1) = (   0.0000000   0.0000000   0.0000000), wk =   0.0246914
        k(    2) = (   0.0000000   0.1283001   0.0000000), wk =   0.1481481
        k(    3) = (   0.0000000   0.2566001   0.0000000), wk =   0.1481481
        k(    4) = (   0.0000000   0.3849002   0.0000000), wk =   0.1481481
        k(    5) = (   0.0000000   0.5132002   0.0000000), wk =   0.1481481
        k(    6) = (   0.1111111   0.1924501   0.0000000), wk =   0.1481481
        k(    7) = (   0.1111111   0.3207501   0.0000000), wk =   0.2962963
        k(    8) = (   0.1111111   0.4490502   0.0000000), wk =   0.2962963
        k(    9) = (   0.1111111   0.5773503   0.0000000), wk =   0.1481481
        k(   10) = (   0.2222222   0.3849002   0.0000000), wk =   0.1481481
        k(   11) = (   0.2222222   0.5132002   0.0000000), wk =   0.2962963
        k(   12) = (   0.3333333   0.5773503   0.0000000), wk =   0.0493827

     Dense  grid:    12531 G-vectors     FFT dimensions: (  24,  24,  64)

     Smooth grid:     8973 G-vectors     FFT dimensions: (  24,  24,  60)

     Estimated max dynamical RAM per process >      17.80 MB

     Check: negative core charge=   -0.000041

     Initial potential from superposition of free atoms

     starting charge       7.9999, renormalised to       8.0000
     Starting wfcs are    8 randomized atomic wfcs

     total cpu time spent up to now is        3.6 secs

     Self-consistent Calculation

     iteration #  1     ecut=    40.00 Ry     beta= 0.70
     Davidson diagonalization with overlap
     ethr =  1.00E-02,  avg # of iterations =  2.0

     negative rho (up, down):  2.076E-07 0.000E+00

     total cpu time spent up to now is        4.9 secs

     total energy              =     -36.85899347 Ry
     estimated scf accuracy    <       0.19224107 Ry

     iteration #  2     ecut=    40.00 Ry     beta= 0.70
     Davidson diagonalization with overlap
     ethr =  2.40E-03,  avg # of iterations =  2.0

     negative rho (up, down):  8.852E-06 0.000E+00

     total cpu time spent up to now is       10.3 secs

     total energy              =     -36.88509909 Ry
     estimated scf accuracy    <       0.00223357 Ry

     iteration #  3     ecut=    40.00 Ry     beta= 0.70
     Davidson diagonalization with overlap
     ethr =  2.79E-05,  avg # of iterations =  1.9

     negative rho (up, down):  2.606E-05 0.000E+00

     total cpu time spent up to now is       11.4 secs

     total energy              =     -36.88540181 Ry
     estimated scf accuracy    <       0.00016103 Ry

     iteration #  4     ecut=    40.00 Ry     beta= 0.70
     Davidson diagonalization with overlap
     ethr =  2.01E-06,  avg # of iterations =  2.2

     negative rho (up, down):  2.823E-05 0.000E+00

     total cpu time spent up to now is       12.3 secs

     total energy              =     -36.88542751 Ry
     estimated scf accuracy    <       0.00000120 Ry

     iteration #  5     ecut=    40.00 Ry     beta= 0.70
     Davidson diagonalization with overlap
     ethr =  1.50E-08,  avg # of iterations =  4.6

     negative rho (up, down):  2.864E-05 0.000E+00

     total cpu time spent up to now is       13.0 secs

     total energy              =     -36.88543010 Ry
     estimated scf accuracy    <       0.00000004 Ry

     iteration #  6     ecut=    40.00 Ry     beta= 0.70
     Davidson diagonalization with overlap
     ethr =  4.85E-10,  avg # of iterations =  3.3

     negative rho (up, down):  2.878E-05 0.000E+00

     total cpu time spent up to now is       13.8 secs

     End of self-consistent calculation

          k = 0.0000 0.0000 0.0000 (  1133 PWs)   bands (ev):

   -18.6564  -6.7445  -2.1466  -2.1466

          k = 0.0000 0.1283 0.0000 (  1120 PWs)   bands (ev):

   -18.3644  -6.3956  -3.2637  -2.7208

          k = 0.0000 0.2566 0.0000 (  1114 PWs)   bands (ev):

   -17.4944  -5.8178  -5.3666  -3.8792

          k = 0.0000 0.3849 0.0000 (  1118 PWs)   bands (ev):

   -16.0675  -8.7530  -4.9026  -3.7385

          k = 0.0000 0.5132 0.0000 (  1128 PWs)   bands (ev):

   -14.1597 -11.5021  -5.4681  -1.8905

          k = 0.1111 0.1925 0.0000 (  1133 PWs)   bands (ev):

   -17.7835  -5.7060  -4.8229  -3.8692

          k = 0.1111 0.3208 0.0000 (  1124 PWs)   bands (ev):

   -16.6349  -7.2766  -5.2562  -4.3677

          k = 0.1111 0.4491 0.0000 (  1117 PWs)   bands (ev):

   -14.9565 -10.0410  -6.1385  -2.5361

          k = 0.1111 0.5774 0.0000 (  1114 PWs)   bands (ev):

   -13.2114 -12.1879  -6.4389  -1.1967

          k = 0.2222 0.3849 0.0000 (  1105 PWs)   bands (ev):

   -15.2322  -8.7944  -7.2737  -2.7822

          k = 0.2222 0.5132 0.0000 (  1110 PWs)   bands (ev):

   -13.3797 -10.9120  -8.2746  -0.9021

          k = 0.3333 0.5774 0.0000 (  1137 PWs)   bands (ev):

   -11.7177 -11.7177  -9.6959   0.9055

     highest occupied level (ev):     0.9055

!    total energy              =     -36.88543012 Ry
     total all-electron energy =      -152.413626 Ry
     estimated scf accuracy    <          2.1E-09 Ry

     The total energy is the sum of the following terms:
     one-electron contribution =     -55.94559930 Ry
     hartree contribution      =      30.36332685 Ry
     xc contribution           =      -9.27976193 Ry
     ewald contribution        =      10.31064953 Ry
     one-center paw contrib.   =     -12.33404528 Ry

     convergence has been achieved in   6 iterations

     Writing all to output data dir ./graphene.save/

     init_run     :      3.58s CPU      3.42s WALL (       1 calls)
     electrons    :     11.39s CPU     10.30s WALL (       1 calls)

     Called by init_run:
     wfcinit      :      2.86s CPU      2.68s WALL (       1 calls)
     potinit      :      0.29s CPU      0.30s WALL (       1 calls)
     hinit0       :      0.42s CPU      0.42s WALL (       1 calls)

     Called by electrons:
     c_bands      :      7.03s CPU      5.45s WALL (       6 calls)
     sum_band     :      2.07s CPU      2.79s WALL (       6 calls)
     v_of_rho     :      0.41s CPU      0.26s WALL (       7 calls)
     newd         :      0.54s CPU      0.82s WALL (       7 calls)
     PAW_pot      :      1.27s CPU      0.89s WALL (       7 calls)
     mix_rho      :      0.04s CPU      0.03s WALL (       6 calls)

     Called by c_bands:
     init_us_2    :      0.13s CPU      0.07s WALL (     156 calls)
     init_us_2:cp :      0.13s CPU      0.07s WALL (     156 calls)
     cegterg      :      6.38s CPU      5.05s WALL (      72 calls)

     Called by *egterg:
     cdiaghg      :      0.05s CPU      0.03s WALL (     264 calls)
     h_psi        :      7.22s CPU      5.99s WALL (     276 calls)
     s_psi        :      0.62s CPU      0.48s WALL (     276 calls)
     g_psi        :      0.01s CPU      0.01s WALL (     192 calls)

     Called by h_psi:
     h_psi:calbec :      3.20s CPU      3.94s WALL (     276 calls)
     vloc_psi     :      3.36s CPU      1.58s WALL (     276 calls)
     add_vuspsi   :      0.64s CPU      0.45s WALL (     276 calls)

     General routines
     calbec       :      4.52s CPU      6.18s WALL (     348 calls)
     fft          :      0.37s CPU      0.35s WALL (      89 calls)
     ffts         :      0.20s CPU      0.21s WALL (      13 calls)
     fftw         :      3.28s CPU      1.58s WALL (    2200 calls)
     interpolate  :      0.20s CPU      0.21s WALL (       7 calls)


     PWSCF        :     15.19s CPU     14.25s WALL


   This run was terminated on:  10:42:49  20Mar2025            

=------------------------------------------------------------------------------=
   JOB DONE.
=------------------------------------------------------------------------------=
