
     Program PWSCF v.7.2 starts on 20Mar2025 at 10:41:54 

     This program is part of the open-source Quantum ESPRESSO suite
     for quantum simulation of materials; please cite
         "P. Giannozzi et al., J. Phys.:Condens. Matter 21 395502 (2009);
         "P. Giannozzi et al., J. Phys.:Condens. Matter 29 465901 (2017);
         "P. Giannozzi et al., J. Chem. Phys. 152 154105 (2020);
          URL http://www.quantum-espresso.org", 
     in publications or presentations arising from this work. More details at
     http://www.quantum-espresso.org/quote

     Serial version
     2250 MiB available memory on the printing compute node when the environment starts

     Waiting for input...
     Reading input from standard input

     Current dimensions of program PWSCF are:
     Max number of different atomic species (ntypx) = 10
     Max number of k-points (npk) =  40000
     Max angular momentum in pseudopotentials (lmaxx) =  4
     file C.pbe-n-kjpaw_psl.1.0.0.UPF: wavefunction(s)  2S 2P renormalized


     G-vector sticks info
     --------------------
     sticks:   dense  smooth     PW     G-vecs:    dense   smooth      PW
     Sum         301      85     37                12531     2039     513

     Using Slab Decomposition



     bravais-lattice index     =            4
     lattice parameter (alat)  =       4.6540  a.u.
     unit-cell volume          =     261.8973 (a.u.)^3
     number of atoms/cell      =            2
     number of atomic types    =            1
     number of electrons       =         8.00
     number of Kohn-Sham states=            4
     kinetic-energy cutoff     =      15.0000  Ry
     charge density cutoff     =     200.0000  Ry
     scf convergence threshold =      1.0E-08
     mixing beta               =       0.7000
     number of iterations used =            8  plain     mixing
     Exchange-correlation= SLA  PW   PBX  PBC
                           (   1   4   3   4   0   0   0)

     celldm(1)=   4.654000  celldm(2)=   0.000000  celldm(3)=   3.000000
     celldm(4)=   0.000000  celldm(5)=   0.000000  celldm(6)=   0.000000

     crystal axes: (cart. coord. in units of alat)
               a(1) = (   1.000000   0.000000   0.000000 )  
               a(2) = (  -0.500000   0.866025   0.000000 )  
               a(3) = (   0.000000   0.000000   3.000000 )  

     reciprocal axes: (cart. coord. in units 2 pi/alat)
               b(1) = (  1.000000  0.577350 -0.000000 )  
               b(2) = (  0.000000  1.154701  0.000000 )  
               b(3) = (  0.000000 -0.000000  0.333333 )  


     PseudoPot. # 1 for C  read from file:
     /root/Desktop/pseudo/C.pbe-n-kjpaw_psl.1.0.0.UPF
     MD5 check sum: 5d2aebdfa2cae82b50a7e79e9516da0f
     Pseudo is Projector augmented-wave + core cor, Zval =  4.0
     Generated using "atomic" code by A. Dal Corso  v.5.1
     Shape of augmentation charge: PSQ
     Using radial grid of 1073 points,  4 beta functions with: 
                l(1) =   0
                l(2) =   0
                l(3) =   1
                l(4) =   1
     Q(r) pseudized with 0 coefficients 


     atomic species   valence    mass     pseudopotential
        C              4.00    12.01070     C ( 1.00)

     24 Sym. Ops., with inversion, found (12 have fractional translation)



   Cartesian axes

     site n.     atom                  positions (alat units)
         1           C   tau(   1) = (   0.0000000   0.0000000   0.0000000  )
         2           C   tau(   2) = (   0.0000000   0.5773503   0.0000000  )

     number of k points=    12
                       cart. coord. in units 2pi/alat
        k(    1) = (   0.0000000   0.0000000   0.0000000), wk =   0.0246914
        k(    2) = (   0.0000000   0.1283001   0.0000000), wk =   0.1481481
        k(    3) = (   0.0000000   0.2566001   0.0000000), wk =   0.1481481
        k(    4) = (   0.0000000   0.3849002   0.0000000), wk =   0.1481481
        k(    5) = (   0.0000000   0.5132002   0.0000000), wk =   0.1481481
        k(    6) = (   0.1111111   0.1924501   0.0000000), wk =   0.1481481
        k(    7) = (   0.1111111   0.3207501   0.0000000), wk =   0.2962963
        k(    8) = (   0.1111111   0.4490502   0.0000000), wk =   0.2962963
        k(    9) = (   0.1111111   0.5773503   0.0000000), wk =   0.1481481
        k(   10) = (   0.2222222   0.3849002   0.0000000), wk =   0.1481481
        k(   11) = (   0.2222222   0.5132002   0.0000000), wk =   0.2962963
        k(   12) = (   0.3333333   0.5773503   0.0000000), wk =   0.0493827

     Dense  grid:    12531 G-vectors     FFT dimensions: (  24,  24,  64)

     Smooth grid:     2039 G-vectors     FFT dimensions: (  12,  12,  36)

     Estimated max dynamical RAM per process >      16.86 MB

     Check: negative core charge=   -0.000041

     Initial potential from superposition of free atoms

     starting charge       7.9999, renormalised to       8.0000
     Starting wfcs are    8 randomized atomic wfcs

     total cpu time spent up to now is        0.9 secs

     Self-consistent Calculation

     iteration #  1     ecut=    15.00 Ry     beta= 0.70
     Davidson diagonalization with overlap
     ethr =  1.00E-02,  avg # of iterations =  2.0

     total cpu time spent up to now is        1.1 secs

     total energy              =     -36.43432978 Ry
     estimated scf accuracy    <       0.13618845 Ry

     iteration #  2     ecut=    15.00 Ry     beta= 0.70
     Davidson diagonalization with overlap
     ethr =  1.70E-03,  avg # of iterations =  2.0

     negative rho (up, down):  5.920E-07 0.000E+00

     total cpu time spent up to now is        1.3 secs

     total energy              =     -36.44631813 Ry
     estimated scf accuracy    <       0.00410431 Ry

     iteration #  3     ecut=    15.00 Ry     beta= 0.70
     Davidson diagonalization with overlap
     ethr =  5.13E-05,  avg # of iterations =  1.3

     negative rho (up, down):  1.122E-06 0.000E+00

     total cpu time spent up to now is        1.6 secs

     total energy              =     -36.44649604 Ry
     estimated scf accuracy    <       0.00017759 Ry

     iteration #  4     ecut=    15.00 Ry     beta= 0.70
     Davidson diagonalization with overlap
     ethr =  2.22E-06,  avg # of iterations =  2.2

     negative rho (up, down):  9.092E-07 0.000E+00

     total cpu time spent up to now is        2.4 secs

     total energy              =     -36.44652868 Ry
     estimated scf accuracy    <       0.00000040 Ry

     iteration #  5     ecut=    15.00 Ry     beta= 0.70
     Davidson diagonalization with overlap
     ethr =  4.96E-09,  avg # of iterations =  5.1

     negative rho (up, down):  8.908E-07 0.000E+00

     total cpu time spent up to now is        2.7 secs

     total energy              =     -36.44653063 Ry
     estimated scf accuracy    <       0.00000003 Ry

     iteration #  6     ecut=    15.00 Ry     beta= 0.70
     Davidson diagonalization with overlap
     ethr =  4.21E-10,  avg # of iterations =  2.1

     negative rho (up, down):  9.015E-07 0.000E+00

     total cpu time spent up to now is        2.9 secs

     End of self-consistent calculation

          k = 0.0000 0.0000 0.0000 (   251 PWs)   bands (ev):

   -19.3110  -6.6399  -1.3053  -1.3052

          k = 0.0000 0.1283 0.0000 (   243 PWs)   bands (ev):

   -19.0079  -6.2361  -2.5431  -1.8077

          k = 0.0000 0.2566 0.0000 (   255 PWs)   bands (ev):

   -18.1085  -5.5820  -5.2242  -3.0798

          k = 0.0000 0.3849 0.0000 (   261 PWs)   bands (ev):

   -16.6310  -8.8291  -4.3430  -3.5091

          k = 0.0000 0.5132 0.0000 (   263 PWs)   bands (ev):

   -14.6921 -11.7381  -4.9147  -1.6239

          k = 0.1111 0.1925 0.0000 (   251 PWs)   bands (ev):

   -18.4073  -5.5298  -4.4832  -3.1198

          k = 0.1111 0.3208 0.0000 (   256 PWs)   bands (ev):

   -17.2250  -7.2587  -4.5925  -4.2000

          k = 0.1111 0.4491 0.0000 (   263 PWs)   bands (ev):

   -15.4902 -10.2745  -5.6508  -2.2942

          k = 0.1111 0.5774 0.0000 (   256 PWs)   bands (ev):

   -13.7669 -12.3352  -5.9187  -0.9483

          k = 0.2222 0.3849 0.0000 (   261 PWs)   bands (ev):

   -15.7732  -8.9924  -6.9058  -2.5680

          k = 0.2222 0.5132 0.0000 (   262 PWs)   bands (ev):

   -13.8471 -11.1953  -8.0613  -0.6010

          k = 0.3333 0.5774 0.0000 (   249 PWs)   bands (ev):

   -12.1043 -12.1043  -9.3573   1.3135

     highest occupied level (ev):     1.3135

!    total energy              =     -36.44653064 Ry
     total all-electron energy =      -151.974726 Ry
     estimated scf accuracy    <          2.0E-09 Ry

     The total energy is the sum of the following terms:
     one-electron contribution =     -55.19081276 Ry
     hartree contribution      =      29.95838113 Ry
     xc contribution           =      -9.17934395 Ry
     ewald contribution        =      10.31064953 Ry
     one-center paw contrib.   =     -12.34540459 Ry

     convergence has been achieved in   6 iterations

     Writing all to output data dir ./graphene.save/

     init_run     :      0.78s CPU      0.76s WALL (       1 calls)
     electrons    :      2.74s CPU      2.05s WALL (       1 calls)

     Called by init_run:
     wfcinit      :      0.19s CPU      0.16s WALL (       1 calls)
     potinit      :      0.19s CPU      0.21s WALL (       1 calls)
     hinit0       :      0.35s CPU      0.36s WALL (       1 calls)

     Called by electrons:
     c_bands      :      0.55s CPU      0.38s WALL (       6 calls)
     sum_band     :      0.14s CPU      0.10s WALL (       6 calls)
     v_of_rho     :      0.24s CPU      0.12s WALL (       7 calls)
     newd         :      0.89s CPU      1.00s WALL (       7 calls)
     PAW_pot      :      0.84s CPU      0.44s WALL (       7 calls)
     mix_rho      :      0.01s CPU      0.01s WALL (       6 calls)

     Called by c_bands:
     init_us_2    :      0.03s CPU      0.02s WALL (     156 calls)
     init_us_2:cp :      0.03s CPU      0.02s WALL (     156 calls)
     cegterg      :      0.30s CPU      0.19s WALL (      72 calls)

     Called by *egterg:
     cdiaghg      :      0.02s CPU      0.01s WALL (     248 calls)
     h_psi        :      0.32s CPU      0.23s WALL (     260 calls)
     s_psi        :      0.13s CPU      0.08s WALL (     260 calls)
     g_psi        :      0.00s CPU      0.00s WALL (     176 calls)

     Called by h_psi:
     h_psi:calbec :      0.06s CPU      0.06s WALL (     260 calls)
     vloc_psi     :      0.24s CPU      0.15s WALL (     260 calls)
     add_vuspsi   :      0.02s CPU      0.02s WALL (     260 calls)

     General routines
     calbec       :      0.06s CPU      0.07s WALL (     332 calls)
     fft          :      0.37s CPU      0.32s WALL (      89 calls)
     ffts         :      0.12s CPU      0.12s WALL (      13 calls)
     fftw         :      0.21s CPU      0.13s WALL (    2090 calls)
     interpolate  :      0.14s CPU      0.13s WALL (       7 calls)


     PWSCF        :      3.85s CPU      3.34s WALL


   This run was terminated on:  10:41:57  20Mar2025            

=------------------------------------------------------------------------------=
   JOB DONE.
=------------------------------------------------------------------------------=
