
     Program PWSCF v.7.2 starts on 20Mar2025 at 10:42: 3 

     This program is part of the open-source Quantum ESPRESSO suite
     for quantum simulation of materials; please cite
         "P. Giannozzi et al., J. Phys.:Condens. Matter 21 395502 (2009);
         "P. Giannozzi et al., J. Phys.:Condens. Matter 29 465901 (2017);
         "P. Giannozzi et al., J. Chem. Phys. 152 154105 (2020);
          URL http://www.quantum-espresso.org", 
     in publications or presentations arising from this work. More details at
     http://www.quantum-espresso.org/quote

     Serial version
     2240 MiB available memory on the printing compute node when the environment starts

     Waiting for input...
     Reading input from standard input

     Current dimensions of program PWSCF are:
     Max number of different atomic species (ntypx) = 10
     Max number of k-points (npk) =  40000
     Max angular momentum in pseudopotentials (lmaxx) =  4
     file C.pbe-n-kjpaw_psl.1.0.0.UPF: wavefunction(s)  2S 2P renormalized


     G-vector sticks info
     --------------------
     sticks:   dense  smooth     PW     G-vecs:    dense   smooth      PW
     Sum         301     151     55                12531     4491     921

     Using Slab Decomposition



     bravais-lattice index     =            4
     lattice parameter (alat)  =       4.6540  a.u.
     unit-cell volume          =     261.8973 (a.u.)^3
     number of atoms/cell      =            2
     number of atomic types    =            1
     number of electrons       =         8.00
     number of Kohn-Sham states=            4
     kinetic-energy cutoff     =      25.0000  Ry
     charge density cutoff     =     200.0000  Ry
     scf convergence threshold =      1.0E-08
     mixing beta               =       0.7000
     number of iterations used =            8  plain     mixing
     Exchange-correlation= SLA  PW   PBX  PBC
                           (   1   4   3   4   0   0   0)

     celldm(1)=   4.654000  celldm(2)=   0.000000  celldm(3)=   3.000000
     celldm(4)=   0.000000  celldm(5)=   0.000000  celldm(6)=   0.000000

     crystal axes: (cart. coord. in units of alat)
               a(1) = (   1.000000   0.000000   0.000000 )  
               a(2) = (  -0.500000   0.866025   0.000000 )  
               a(3) = (   0.000000   0.000000   3.000000 )  

     reciprocal axes: (cart. coord. in units 2 pi/alat)
               b(1) = (  1.000000  0.577350 -0.000000 )  
               b(2) = (  0.000000  1.154701  0.000000 )  
               b(3) = (  0.000000 -0.000000  0.333333 )  


     PseudoPot. # 1 for C  read from file:
     /root/Desktop/pseudo/C.pbe-n-kjpaw_psl.1.0.0.UPF
     MD5 check sum: 5d2aebdfa2cae82b50a7e79e9516da0f
     Pseudo is Projector augmented-wave + core cor, Zval =  4.0
     Generated using "atomic" code by A. Dal Corso  v.5.1
     Shape of augmentation charge: PSQ
     Using radial grid of 1073 points,  4 beta functions with: 
                l(1) =   0
                l(2) =   0
                l(3) =   1
                l(4) =   1
     Q(r) pseudized with 0 coefficients 


     atomic species   valence    mass     pseudopotential
        C              4.00    12.01070     C ( 1.00)

     24 Sym. Ops., with inversion, found (12 have fractional translation)



   Cartesian axes

     site n.     atom                  positions (alat units)
         1           C   tau(   1) = (   0.0000000   0.0000000   0.0000000  )
         2           C   tau(   2) = (   0.0000000   0.5773503   0.0000000  )

     number of k points=    12
                       cart. coord. in units 2pi/alat
        k(    1) = (   0.0000000   0.0000000   0.0000000), wk =   0.0246914
        k(    2) = (   0.0000000   0.1283001   0.0000000), wk =   0.1481481
        k(    3) = (   0.0000000   0.2566001   0.0000000), wk =   0.1481481
        k(    4) = (   0.0000000   0.3849002   0.0000000), wk =   0.1481481
        k(    5) = (   0.0000000   0.5132002   0.0000000), wk =   0.1481481
        k(    6) = (   0.1111111   0.1924501   0.0000000), wk =   0.1481481
        k(    7) = (   0.1111111   0.3207501   0.0000000), wk =   0.2962963
        k(    8) = (   0.1111111   0.4490502   0.0000000), wk =   0.2962963
        k(    9) = (   0.1111111   0.5773503   0.0000000), wk =   0.1481481
        k(   10) = (   0.2222222   0.3849002   0.0000000), wk =   0.1481481
        k(   11) = (   0.2222222   0.5132002   0.0000000), wk =   0.2962963
        k(   12) = (   0.3333333   0.5773503   0.0000000), wk =   0.0493827

     Dense  grid:    12531 G-vectors     FFT dimensions: (  24,  24,  64)

     Smooth grid:     4491 G-vectors     FFT dimensions: (  15,  15,  45)

     Estimated max dynamical RAM per process >      17.18 MB

     Check: negative core charge=   -0.000041

     Initial potential from superposition of free atoms

     starting charge       7.9999, renormalised to       8.0000
     Starting wfcs are    8 randomized atomic wfcs

     total cpu time spent up to now is        2.7 secs

     Self-consistent Calculation

     iteration #  1     ecut=    25.00 Ry     beta= 0.70
     Davidson diagonalization with overlap
     ethr =  1.00E-02,  avg # of iterations =  2.0

     negative rho (up, down):  2.013E-07 0.000E+00

     total cpu time spent up to now is        3.7 secs

     total energy              =     -36.81530839 Ry
     estimated scf accuracy    <       0.18449774 Ry

     iteration #  2     ecut=    25.00 Ry     beta= 0.70
     Davidson diagonalization with overlap
     ethr =  2.31E-03,  avg # of iterations =  2.0

     negative rho (up, down):  5.765E-06 0.000E+00

     total cpu time spent up to now is        5.1 secs

     total energy              =     -36.84084926 Ry
     estimated scf accuracy    <       0.00232468 Ry

     iteration #  3     ecut=    25.00 Ry     beta= 0.70
     Davidson diagonalization with overlap
     ethr =  2.91E-05,  avg # of iterations =  1.7

     negative rho (up, down):  2.531E-05 0.000E+00

     total cpu time spent up to now is        5.8 secs

     total energy              =     -36.84104817 Ry
     estimated scf accuracy    <       0.00016636 Ry

     iteration #  4     ecut=    25.00 Ry     beta= 0.70
     Davidson diagonalization with overlap
     ethr =  2.08E-06,  avg # of iterations =  2.1

     negative rho (up, down):  2.228E-05 0.000E+00

     total cpu time spent up to now is        7.9 secs

     total energy              =     -36.84107250 Ry
     estimated scf accuracy    <       0.00000108 Ry

     iteration #  5     ecut=    25.00 Ry     beta= 0.70
     Davidson diagonalization with overlap
     ethr =  1.36E-08,  avg # of iterations =  4.4

     negative rho (up, down):  2.160E-05 0.000E+00

     total cpu time spent up to now is       11.1 secs

     total energy              =     -36.84107490 Ry
     estimated scf accuracy    <       0.00000012 Ry

     iteration #  6     ecut=    25.00 Ry     beta= 0.70
     Davidson diagonalization with overlap
     ethr =  1.48E-09,  avg # of iterations =  2.0

     negative rho (up, down):  2.144E-05 0.000E+00

     total cpu time spent up to now is       11.5 secs

     End of self-consistent calculation

          k = 0.0000 0.0000 0.0000 (   563 PWs)   bands (ev):

   -18.7344  -6.7279  -2.1310  -2.1310

          k = 0.0000 0.1283 0.0000 (   559 PWs)   bands (ev):

   -18.4410  -6.3778  -3.2378  -2.6980

          k = 0.0000 0.2566 0.0000 (   558 PWs)   bands (ev):

   -17.5652  -5.8274  -5.3395  -3.8635

          k = 0.0000 0.3849 0.0000 (   556 PWs)   bands (ev):

   -16.1305  -8.7680  -4.8823  -3.7082

          k = 0.0000 0.5132 0.0000 (   554 PWs)   bands (ev):

   -14.2180 -11.5283  -5.4403  -1.8604

          k = 0.1111 0.1925 0.0000 (   557 PWs)   bands (ev):

   -17.8568  -5.6839  -4.8228  -3.8377

          k = 0.1111 0.3208 0.0000 (   546 PWs)   bands (ev):

   -16.6998  -7.2832  -5.2275  -4.3353

          k = 0.1111 0.4491 0.0000 (   554 PWs)   bands (ev):

   -15.0142 -10.0636  -6.1240  -2.5042

          k = 0.1111 0.5774 0.0000 (   556 PWs)   bands (ev):

   -13.2734 -12.2120  -6.4284  -1.1509

          k = 0.2222 0.3849 0.0000 (   548 PWs)   bands (ev):

   -15.2912  -8.8113  -7.2677  -2.7477

          k = 0.2222 0.5132 0.0000 (   551 PWs)   bands (ev):

   -13.4310 -10.9405  -8.2774  -0.8478

          k = 0.3333 0.5774 0.0000 (   534 PWs)   bands (ev):

   -11.7529 -11.7529  -9.6816   0.9767

     highest occupied level (ev):     0.9767

!    total energy              =     -36.84107493 Ry
     total all-electron energy =      -152.369271 Ry
     estimated scf accuracy    <          3.0E-10 Ry

     The total energy is the sum of the following terms:
     one-electron contribution =     -55.85913764 Ry
     hartree contribution      =      30.31353547 Ry
     xc contribution           =      -9.26907796 Ry
     ewald contribution        =      10.31064953 Ry
     one-center paw contrib.   =     -12.33704434 Ry

     convergence has been achieved in   6 iterations

     Writing all to output data dir ./graphene.save/

     init_run     :      2.59s CPU      2.37s WALL (       1 calls)
     electrons    :     10.52s CPU      8.91s WALL (       1 calls)

     Called by init_run:
     wfcinit      :      1.63s CPU      1.33s WALL (       1 calls)
     potinit      :      0.33s CPU      0.39s WALL (       1 calls)
     hinit0       :      0.61s CPU      0.61s WALL (       1 calls)

     Called by electrons:
     c_bands      :      6.77s CPU      6.04s WALL (       6 calls)
     sum_band     :      1.36s CPU      1.33s WALL (       6 calls)
     v_of_rho     :      0.62s CPU      0.35s WALL (       7 calls)
     newd         :      0.16s CPU      0.18s WALL (       7 calls)
     PAW_pot      :      1.27s CPU      0.98s WALL (       7 calls)
     mix_rho      :      0.07s CPU      0.05s WALL (       6 calls)

     Called by c_bands:
     init_us_2    :      0.08s CPU      0.06s WALL (     156 calls)
     init_us_2:cp :      0.08s CPU      0.06s WALL (     156 calls)
     cegterg      :      5.79s CPU      5.26s WALL (      72 calls)

     Called by *egterg:
     cdiaghg      :      0.06s CPU      0.04s WALL (     242 calls)
     h_psi        :      5.82s CPU      5.26s WALL (     254 calls)
     s_psi        :      0.90s CPU      0.80s WALL (     254 calls)
     g_psi        :      0.00s CPU      0.00s WALL (     170 calls)

     Called by h_psi:
     h_psi:calbec :      3.42s CPU      3.78s WALL (     254 calls)
     vloc_psi     :      1.13s CPU      0.57s WALL (     254 calls)
     add_vuspsi   :      1.26s CPU      0.90s WALL (     254 calls)

     General routines
     calbec       :      4.21s CPU      4.79s WALL (     326 calls)
     fft          :      0.52s CPU      0.46s WALL (      89 calls)
     ffts         :      0.12s CPU      0.12s WALL (      13 calls)
     fftw         :      1.04s CPU      0.53s WALL (    2138 calls)
     interpolate  :      0.12s CPU      0.12s WALL (       7 calls)


     PWSCF        :     13.51s CPU     12.03s WALL


   This run was terminated on:  10:42:15  20Mar2025            

=------------------------------------------------------------------------------=
   JOB DONE.
=------------------------------------------------------------------------------=
