
     Program PWSCF v.7.2 starts on 20Mar2025 at 10:42:15 

     This program is part of the open-source Quantum ESPRESSO suite
     for quantum simulation of materials; please cite
         "P. Giannozzi et al., J. Phys.:Condens. Matter 21 395502 (2009);
         "P. Giannozzi et al., J. Phys.:Condens. Matter 29 465901 (2017);
         "P. Giannozzi et al., J. Chem. Phys. 152 154105 (2020);
          URL http://www.quantum-espresso.org", 
     in publications or presentations arising from this work. More details at
     http://www.quantum-espresso.org/quote

     Serial version
     2237 MiB available memory on the printing compute node when the environment starts

     Waiting for input...
     Reading input from standard input

     Current dimensions of program PWSCF are:
     Max number of different atomic species (ntypx) = 10
     Max number of k-points (npk) =  40000
     Max angular momentum in pseudopotentials (lmaxx) =  4
     file C.pbe-n-kjpaw_psl.1.0.0.UPF: wavefunction(s)  2S 2P renormalized


     G-vector sticks info
     --------------------
     sticks:   dense  smooth     PW     G-vecs:    dense   smooth      PW
     Sum         301     187     61                12531     5851    1133

     Using Slab Decomposition



     bravais-lattice index     =            4
     lattice parameter (alat)  =       4.6540  a.u.
     unit-cell volume          =     261.8973 (a.u.)^3
     number of atoms/cell      =            2
     number of atomic types    =            1
     number of electrons       =         8.00
     number of Kohn-Sham states=            4
     kinetic-energy cutoff     =      30.0000  Ry
     charge density cutoff     =     200.0000  Ry
     scf convergence threshold =      1.0E-08
     mixing beta               =       0.7000
     number of iterations used =            8  plain     mixing
     Exchange-correlation= SLA  PW   PBX  PBC
                           (   1   4   3   4   0   0   0)

     celldm(1)=   4.654000  celldm(2)=   0.000000  celldm(3)=   3.000000
     celldm(4)=   0.000000  celldm(5)=   0.000000  celldm(6)=   0.000000

     crystal axes: (cart. coord. in units of alat)
               a(1) = (   1.000000   0.000000   0.000000 )  
               a(2) = (  -0.500000   0.866025   0.000000 )  
               a(3) = (   0.000000   0.000000   3.000000 )  

     reciprocal axes: (cart. coord. in units 2 pi/alat)
               b(1) = (  1.000000  0.577350 -0.000000 )  
               b(2) = (  0.000000  1.154701  0.000000 )  
               b(3) = (  0.000000 -0.000000  0.333333 )  


     PseudoPot. # 1 for C  read from file:
     /root/Desktop/pseudo/C.pbe-n-kjpaw_psl.1.0.0.UPF
     MD5 check sum: 5d2aebdfa2cae82b50a7e79e9516da0f
     Pseudo is Projector augmented-wave + core cor, Zval =  4.0
     Generated using "atomic" code by A. Dal Corso  v.5.1
     Shape of augmentation charge: PSQ
     Using radial grid of 1073 points,  4 beta functions with: 
                l(1) =   0
                l(2) =   0
                l(3) =   1
                l(4) =   1
     Q(r) pseudized with 0 coefficients 


     atomic species   valence    mass     pseudopotential
        C              4.00    12.01070     C ( 1.00)

     24 Sym. Ops., with inversion, found (12 have fractional translation)



   Cartesian axes

     site n.     atom                  positions (alat units)
         1           C   tau(   1) = (   0.0000000   0.0000000   0.0000000  )
         2           C   tau(   2) = (   0.0000000   0.5773503   0.0000000  )

     number of k points=    12
                       cart. coord. in units 2pi/alat
        k(    1) = (   0.0000000   0.0000000   0.0000000), wk =   0.0246914
        k(    2) = (   0.0000000   0.1283001   0.0000000), wk =   0.1481481
        k(    3) = (   0.0000000   0.2566001   0.0000000), wk =   0.1481481
        k(    4) = (   0.0000000   0.3849002   0.0000000), wk =   0.1481481
        k(    5) = (   0.0000000   0.5132002   0.0000000), wk =   0.1481481
        k(    6) = (   0.1111111   0.1924501   0.0000000), wk =   0.1481481
        k(    7) = (   0.1111111   0.3207501   0.0000000), wk =   0.2962963
        k(    8) = (   0.1111111   0.4490502   0.0000000), wk =   0.2962963
        k(    9) = (   0.1111111   0.5773503   0.0000000), wk =   0.1481481
        k(   10) = (   0.2222222   0.3849002   0.0000000), wk =   0.1481481
        k(   11) = (   0.2222222   0.5132002   0.0000000), wk =   0.2962963
        k(   12) = (   0.3333333   0.5773503   0.0000000), wk =   0.0493827

     Dense  grid:    12531 G-vectors     FFT dimensions: (  24,  24,  64)

     Smooth grid:     5851 G-vectors     FFT dimensions: (  18,  18,  50)

     Estimated max dynamical RAM per process >      17.37 MB

     Check: negative core charge=   -0.000041

     Initial potential from superposition of free atoms

     starting charge       7.9999, renormalised to       8.0000
     Starting wfcs are    8 randomized atomic wfcs

     total cpu time spent up to now is        2.4 secs

     Self-consistent Calculation

     iteration #  1     ecut=    30.00 Ry     beta= 0.70
     Davidson diagonalization with overlap
     ethr =  1.00E-02,  avg # of iterations =  2.0

     negative rho (up, down):  2.035E-07 0.000E+00

     total cpu time spent up to now is        4.4 secs

     total energy              =     -36.84426576 Ry
     estimated scf accuracy    <       0.19089316 Ry

     iteration #  2     ecut=    30.00 Ry     beta= 0.70
     Davidson diagonalization with overlap
     ethr =  2.39E-03,  avg # of iterations =  2.0

     negative rho (up, down):  7.686E-06 0.000E+00

     total cpu time spent up to now is        4.9 secs

     total energy              =     -36.87081607 Ry
     estimated scf accuracy    <       0.00227609 Ry

     iteration #  3     ecut=    30.00 Ry     beta= 0.70
     Davidson diagonalization with overlap
     ethr =  2.85E-05,  avg # of iterations =  1.6

     negative rho (up, down):  2.537E-05 0.000E+00

     total cpu time spent up to now is        5.3 secs

     total energy              =     -36.87101485 Ry
     estimated scf accuracy    <       0.00017054 Ry

     iteration #  4     ecut=    30.00 Ry     beta= 0.70
     Davidson diagonalization with overlap
     ethr =  2.13E-06,  avg # of iterations =  2.2

     negative rho (up, down):  2.614E-05 0.000E+00

     total cpu time spent up to now is        5.7 secs

     total energy              =     -36.87103858 Ry
     estimated scf accuracy    <       0.00000108 Ry

     iteration #  5     ecut=    30.00 Ry     beta= 0.70
     Davidson diagonalization with overlap
     ethr =  1.35E-08,  avg # of iterations =  4.4

     negative rho (up, down):  2.651E-05 0.000E+00

     total cpu time spent up to now is        6.8 secs

     total energy              =     -36.87104089 Ry
     estimated scf accuracy    <       0.00000012 Ry

     iteration #  6     ecut=    30.00 Ry     beta= 0.70
     Davidson diagonalization with overlap
     ethr =  1.44E-09,  avg # of iterations =  2.3

     negative rho (up, down):  2.673E-05 0.000E+00

     total cpu time spent up to now is        8.1 secs

     End of self-consistent calculation

          k = 0.0000 0.0000 0.0000 (   727 PWs)   bands (ev):

   -18.6790  -6.7403  -2.1196  -2.1196

          k = 0.0000 0.1283 0.0000 (   699 PWs)   bands (ev):

   -18.3866  -6.3874  -3.2410  -2.6901

          k = 0.0000 0.2566 0.0000 (   721 PWs)   bands (ev):

   -17.5158  -5.8162  -5.3580  -3.8579

          k = 0.0000 0.3849 0.0000 (   731 PWs)   bands (ev):

   -16.0872  -8.7598  -4.8855  -3.7287

          k = 0.0000 0.5132 0.0000 (   737 PWs)   bands (ev):

   -14.1780 -11.5121  -5.4554  -1.8804

          k = 0.1111 0.1925 0.0000 (   716 PWs)   bands (ev):

   -17.8051  -5.6987  -4.8148  -3.8441

          k = 0.1111 0.3208 0.0000 (   727 PWs)   bands (ev):

   -16.6553  -7.2792  -5.2409  -4.3578

          k = 0.1111 0.4491 0.0000 (   733 PWs)   bands (ev):

   -14.9754 -10.0493  -6.1267  -2.5251

          k = 0.1111 0.5774 0.0000 (   744 PWs)   bands (ev):

   -13.2310 -12.1973  -6.4306  -1.1864

          k = 0.2222 0.3849 0.0000 (   726 PWs)   bands (ev):

   -15.2508  -8.8027  -7.2611  -2.7708

          k = 0.2222 0.5132 0.0000 (   731 PWs)   bands (ev):

   -13.3973 -10.9214  -8.2673  -0.8887

          k = 0.3333 0.5774 0.0000 (   720 PWs)   bands (ev):

   -11.7311 -11.7311  -9.6830   0.9263

     highest occupied level (ev):     0.9263

!    total energy              =     -36.87104091 Ry
     total all-electron energy =      -152.399237 Ry
     estimated scf accuracy    <          2.3E-10 Ry

     The total energy is the sum of the following terms:
     one-electron contribution =     -55.91745523 Ry
     hartree contribution      =      30.34819471 Ry
     xc contribution           =      -9.27699034 Ry
     ewald contribution        =      10.31064953 Ry
     one-center paw contrib.   =     -12.33543958 Ry

     convergence has been achieved in   6 iterations

     Writing all to output data dir ./graphene.save/

     init_run     :      2.29s CPU      2.20s WALL (       1 calls)
     electrons    :      7.65s CPU      5.80s WALL (       1 calls)

     Called by init_run:
     wfcinit      :      1.20s CPU      1.02s WALL (       1 calls)
     potinit      :      0.25s CPU      0.26s WALL (       1 calls)
     hinit0       :      0.38s CPU      0.38s WALL (       1 calls)

     Called by electrons:
     c_bands      :      4.70s CPU      3.78s WALL (       6 calls)
     sum_band     :      0.71s CPU      0.43s WALL (       6 calls)
     v_of_rho     :      0.60s CPU      0.29s WALL (       7 calls)
     newd         :      0.79s CPU      0.91s WALL (       7 calls)
     PAW_pot      :      1.15s CPU      0.74s WALL (       7 calls)
     mix_rho      :      0.07s CPU      0.02s WALL (       6 calls)

     Called by c_bands:
     init_us_2    :      0.10s CPU      0.06s WALL (     156 calls)
     init_us_2:cp :      0.10s CPU      0.06s WALL (     156 calls)
     cegterg      :      4.09s CPU      3.39s WALL (      72 calls)

     Called by *egterg:
     cdiaghg      :      0.05s CPU      0.02s WALL (     247 calls)
     h_psi        :      4.29s CPU      3.67s WALL (     259 calls)
     s_psi        :      0.60s CPU      0.40s WALL (     259 calls)
     g_psi        :      0.01s CPU      0.00s WALL (     175 calls)

     Called by h_psi:
     h_psi:calbec :      1.99s CPU      2.34s WALL (     259 calls)
     vloc_psi     :      1.92s CPU      0.97s WALL (     259 calls)
     add_vuspsi   :      0.37s CPU      0.36s WALL (     259 calls)

     General routines
     calbec       :      2.14s CPU      2.49s WALL (     331 calls)
     fft          :      0.44s CPU      0.33s WALL (      89 calls)
     ffts         :      0.17s CPU      0.17s WALL (      13 calls)
     fftw         :      1.92s CPU      0.96s WALL (    2146 calls)
     interpolate  :      0.16s CPU      0.18s WALL (       7 calls)


     PWSCF        :     10.28s CPU      8.62s WALL


   This run was terminated on:  10:42:24  20Mar2025            

=------------------------------------------------------------------------------=
   JOB DONE.
=------------------------------------------------------------------------------=
