
     Program PWSCF v.7.2 starts on 20Mar2025 at 10:56:55 

     This program is part of the open-source Quantum ESPRESSO suite
     for quantum simulation of materials; please cite
         "P. Giannozzi et al., J. Phys.:Condens. Matter 21 395502 (2009);
         "P. Giannozzi et al., J. Phys.:Condens. Matter 29 465901 (2017);
         "P. Giannozzi et al., J. Chem. Phys. 152 154105 (2020);
          URL http://www.quantum-espresso.org", 
     in publications or presentations arising from this work. More details at
     http://www.quantum-espresso.org/quote

     Serial version
     2214 MiB available memory on the printing compute node when the environment starts

     Waiting for input...
     Reading input from standard input

     Current dimensions of program PWSCF are:
     Max number of different atomic species (ntypx) = 10
     Max number of k-points (npk) =  40000
     Max angular momentum in pseudopotentials (lmaxx) =  4
     file C.pbe-n-kjpaw_psl.1.0.0.UPF: wavefunction(s)  2S 2P renormalized


     G-vector sticks info
     --------------------
     sticks:   dense  smooth     PW     G-vecs:    dense   smooth      PW
     Sum         301     121     37                 2389      595     125

     Using Slab Decomposition



     bravais-lattice index     =            4
     lattice parameter (alat)  =       4.6540  a.u.
     unit-cell volume          =      50.6335 (a.u.)^3
     number of atoms/cell      =            2
     number of atomic types    =            1
     number of electrons       =         8.00
     number of Kohn-Sham states=            4
     kinetic-energy cutoff     =      20.0000  Ry
     charge density cutoff     =     200.0000  Ry
     scf convergence threshold =      1.0E-08
     mixing beta               =       0.7000
     number of iterations used =            8  plain     mixing
     Exchange-correlation= SLA  PW   PBX  PBC
                           (   1   4   3   4   0   0   0)

     celldm(1)=   4.654000  celldm(2)=   0.000000  celldm(3)=   0.580000
     celldm(4)=   0.000000  celldm(5)=   0.000000  celldm(6)=   0.000000

     crystal axes: (cart. coord. in units of alat)
               a(1) = (   1.000000   0.000000   0.000000 )  
               a(2) = (  -0.500000   0.866025   0.000000 )  
               a(3) = (   0.000000   0.000000   0.580000 )  

     reciprocal axes: (cart. coord. in units 2 pi/alat)
               b(1) = (  1.000000  0.577350 -0.000000 )  
               b(2) = (  0.000000  1.154701  0.000000 )  
               b(3) = (  0.000000 -0.000000  1.724138 )  


     PseudoPot. # 1 for C  read from file:
     /root/Desktop/pseudo/C.pbe-n-kjpaw_psl.1.0.0.UPF
     MD5 check sum: 5d2aebdfa2cae82b50a7e79e9516da0f
     Pseudo is Projector augmented-wave + core cor, Zval =  4.0
     Generated using "atomic" code by A. Dal Corso  v.5.1
     Shape of augmentation charge: PSQ
     Using radial grid of 1073 points,  4 beta functions with: 
                l(1) =   0
                l(2) =   0
                l(3) =   1
                l(4) =   1
     Q(r) pseudized with 0 coefficients 


     atomic species   valence    mass     pseudopotential
        C              4.00    12.01070     C ( 1.00)

     24 Sym. Ops., with inversion, found (12 have fractional translation)



   Cartesian axes

     site n.     atom                  positions (alat units)
         1           C   tau(   1) = (   0.0000000   0.0000000   0.0000000  )
         2           C   tau(   2) = (   0.0000000   0.5773503   0.0000000  )

     number of k points=    12
                       cart. coord. in units 2pi/alat
        k(    1) = (   0.0000000   0.0000000   0.0000000), wk =   0.0246914
        k(    2) = (   0.0000000   0.1283001   0.0000000), wk =   0.1481481
        k(    3) = (   0.0000000   0.2566001   0.0000000), wk =   0.1481481
        k(    4) = (   0.0000000   0.3849002   0.0000000), wk =   0.1481481
        k(    5) = (   0.0000000   0.5132002   0.0000000), wk =   0.1481481
        k(    6) = (   0.1111111   0.1924501   0.0000000), wk =   0.1481481
        k(    7) = (   0.1111111   0.3207501   0.0000000), wk =   0.2962963
        k(    8) = (   0.1111111   0.4490502   0.0000000), wk =   0.2962963
        k(    9) = (   0.1111111   0.5773503   0.0000000), wk =   0.1481481
        k(   10) = (   0.2222222   0.3849002   0.0000000), wk =   0.1481481
        k(   11) = (   0.2222222   0.5132002   0.0000000), wk =   0.2962963
        k(   12) = (   0.3333333   0.5773503   0.0000000), wk =   0.0493827

     Dense  grid:     2389 G-vectors     FFT dimensions: (  24,  24,  15)

     Smooth grid:      595 G-vectors     FFT dimensions: (  15,  15,   8)

     Estimated max dynamical RAM per process >       3.62 MB

     Check: negative core charge=   -0.000086

     Initial potential from superposition of free atoms

     starting charge       7.9999, renormalised to       8.0000
     Starting wfcs are    8 randomized atomic wfcs

     total cpu time spent up to now is        0.8 secs

     Self-consistent Calculation

     iteration #  1     ecut=    20.00 Ry     beta= 0.70
     Davidson diagonalization with overlap
     ethr =  1.00E-02,  avg # of iterations =  2.0

     Threshold (ethr) on eigenvalues was too large:
     Diagonalizing with lowered threshold

     Davidson diagonalization with overlap
     ethr =  3.31E-04,  avg # of iterations =  1.8

     total cpu time spent up to now is        1.1 secs

     total energy              =     -37.37186221 Ry
     estimated scf accuracy    <       0.02476665 Ry

     iteration #  2     ecut=    20.00 Ry     beta= 0.70
     Davidson diagonalization with overlap
     ethr =  3.10E-04,  avg # of iterations =  1.5

     total cpu time spent up to now is        1.5 secs

     total energy              =     -37.37308300 Ry
     estimated scf accuracy    <       0.00117082 Ry

     iteration #  3     ecut=    20.00 Ry     beta= 0.70
     Davidson diagonalization with overlap
     ethr =  1.46E-05,  avg # of iterations =  2.4

     total cpu time spent up to now is        1.9 secs

     total energy              =     -37.37326898 Ry
     estimated scf accuracy    <       0.00004390 Ry

     iteration #  4     ecut=    20.00 Ry     beta= 0.70
     Davidson diagonalization with overlap
     ethr =  5.49E-07,  avg # of iterations =  3.6

     total cpu time spent up to now is        3.2 secs

     total energy              =     -37.37328936 Ry
     estimated scf accuracy    <       0.00000245 Ry

     iteration #  5     ecut=    20.00 Ry     beta= 0.70
     Davidson diagonalization with overlap
     ethr =  3.07E-08,  avg # of iterations =  3.3

     total cpu time spent up to now is        4.1 secs

     total energy              =     -37.37329023 Ry
     estimated scf accuracy    <       0.00000006 Ry

     iteration #  6     ecut=    20.00 Ry     beta= 0.70
     Davidson diagonalization with overlap
     c_bands:  1 eigenvalues not converged
     ethr =  7.59E-10,  avg # of iterations =  4.8

     total cpu time spent up to now is        4.4 secs

     End of self-consistent calculation

          k = 0.0000 0.0000 0.0000 (    69 PWs)   bands (ev):

    -6.8723  12.2358  12.2358  22.4157

          k = 0.0000 0.1283 0.0000 (    69 PWs)   bands (ev):

    -6.5644  10.6567  11.6630  22.7717

          k = 0.0000 0.2566 0.0000 (    74 PWs)   bands (ev):

    -5.6551   7.3433  10.5027  21.7406

          k = 0.0000 0.3849 0.0000 (    76 PWs)   bands (ev):

    -4.1754   4.0683   9.3546  20.8292

          k = 0.0000 0.5132 0.0000 (    76 PWs)   bands (ev):

    -2.3016   1.1891   8.7738  20.3170

          k = 0.1111 0.1925 0.0000 (    71 PWs)   bands (ev):

    -5.9577   8.5886  10.4555  23.7712

          k = 0.1111 0.3208 0.0000 (    74 PWs)   bands (ev):

    -4.7594   5.6186   8.9095  22.9063

          k = 0.1111 0.4491 0.0000 (    75 PWs)   bands (ev):

    -3.0354   2.6099   7.9179  22.1735

          k = 0.1111 0.5774 0.0000 (    72 PWs)   bands (ev):

    -1.5258   0.6767   7.6053  21.9430

          k = 0.2222 0.3849 0.0000 (    75 PWs)   bands (ev):

    -3.3010   3.6685   6.7483  25.8208

          k = 0.2222 0.5132 0.0000 (    72 PWs)   bands (ev):

    -1.4445   1.5052   5.6636  25.7069

          k = 0.3333 0.5774 0.0000 (    69 PWs)   bands (ev):

     0.2546   0.2546   4.6123  29.5032

     highest occupied level (ev):    29.5032

!    total energy              =     -37.37329031 Ry
     total all-electron energy =      -152.901486 Ry
     estimated scf accuracy    <          5.3E-09 Ry

     The total energy is the sum of the following terms:
     one-electron contribution =      13.08807688 Ry
     hartree contribution      =       1.12810332 Ry
     xc contribution           =      -9.88240790 Ry
     ewald contribution        =     -29.23683087 Ry
     one-center paw contrib.   =     -12.47023173 Ry

     convergence has been achieved in   6 iterations

     Writing all to output data dir ./graphene.save/

     init_run     :      0.54s CPU      0.60s WALL (       1 calls)
     electrons    :      3.68s CPU      3.71s WALL (       1 calls)

     Called by init_run:
     wfcinit      :      0.06s CPU      0.03s WALL (       1 calls)
     potinit      :      0.10s CPU      0.12s WALL (       1 calls)
     hinit0       :      0.30s CPU      0.30s WALL (       1 calls)

     Called by electrons:
     c_bands      :      0.56s CPU      0.74s WALL (       7 calls)
     sum_band     :      0.17s CPU      0.12s WALL (       7 calls)
     v_of_rho     :      0.34s CPU      0.16s WALL (       7 calls)
     newd         :      0.66s CPU      1.27s WALL (       7 calls)
     PAW_pot      :      1.77s CPU      1.35s WALL (       7 calls)
     mix_rho      :      0.03s CPU      0.01s WALL (       7 calls)

     Called by c_bands:
     init_us_2    :      0.01s CPU      0.01s WALL (     180 calls)
     init_us_2:cp :      0.01s CPU      0.01s WALL (     180 calls)
     cegterg      :      0.13s CPU      0.11s WALL (      84 calls)

     Called by *egterg:
     cdiaghg      :      0.03s CPU      0.03s WALL (     306 calls)
     h_psi        :      0.12s CPU      0.08s WALL (     330 calls)
     s_psi        :      0.01s CPU      0.00s WALL (     330 calls)
     g_psi        :      0.00s CPU      0.00s WALL (     234 calls)

     Called by h_psi:
     h_psi:calbec :      0.02s CPU      0.01s WALL (     330 calls)
     vloc_psi     :      0.10s CPU      0.07s WALL (     330 calls)
     add_vuspsi   :      0.00s CPU      0.01s WALL (     330 calls)

     General routines
     calbec       :      0.02s CPU      0.01s WALL (     414 calls)
     fft          :      0.20s CPU      0.18s WALL (      90 calls)
     ffts         :      0.02s CPU      0.02s WALL (      14 calls)
     fftw         :      0.09s CPU      0.06s WALL (    2340 calls)
     interpolate  :      0.02s CPU      0.03s WALL (       7 calls)


     PWSCF        :      4.54s CPU      5.11s WALL


   This run was terminated on:  10:57: 0  20Mar2025            

=------------------------------------------------------------------------------=
   JOB DONE.
=------------------------------------------------------------------------------=
