
     Program PWSCF v.7.2 starts on 20Mar2025 at 10:57: 8 

     This program is part of the open-source Quantum ESPRESSO suite
     for quantum simulation of materials; please cite
         "P. Giannozzi et al., J. Phys.:Condens. Matter 21 395502 (2009);
         "P. Giannozzi et al., J. Phys.:Condens. Matter 29 465901 (2017);
         "P. Giannozzi et al., J. Chem. Phys. 152 154105 (2020);
          URL http://www.quantum-espresso.org", 
     in publications or presentations arising from this work. More details at
     http://www.quantum-espresso.org/quote

     Serial version
     2215 MiB available memory on the printing compute node when the environment starts

     Waiting for input...
     Reading input from standard input

     Current dimensions of program PWSCF are:
     Max number of different atomic species (ntypx) = 10
     Max number of k-points (npk) =  40000
     Max angular momentum in pseudopotentials (lmaxx) =  4
     file C.pbe-n-kjpaw_psl.1.0.0.UPF: wavefunction(s)  2S 2P renormalized


     G-vector sticks info
     --------------------
     sticks:   dense  smooth     PW     G-vecs:    dense   smooth      PW
     Sum         301     121     37                 2811      705     149

     Using Slab Decomposition



     bravais-lattice index     =            4
     lattice parameter (alat)  =       4.6540  a.u.
     unit-cell volume          =      58.4904 (a.u.)^3
     number of atoms/cell      =            2
     number of atomic types    =            1
     number of electrons       =         8.00
     number of Kohn-Sham states=            4
     kinetic-energy cutoff     =      20.0000  Ry
     charge density cutoff     =     200.0000  Ry
     scf convergence threshold =      1.0E-08
     mixing beta               =       0.7000
     number of iterations used =            8  plain     mixing
     Exchange-correlation= SLA  PW   PBX  PBC
                           (   1   4   3   4   0   0   0)

     celldm(1)=   4.654000  celldm(2)=   0.000000  celldm(3)=   0.670000
     celldm(4)=   0.000000  celldm(5)=   0.000000  celldm(6)=   0.000000

     crystal axes: (cart. coord. in units of alat)
               a(1) = (   1.000000   0.000000   0.000000 )  
               a(2) = (  -0.500000   0.866025   0.000000 )  
               a(3) = (   0.000000   0.000000   0.670000 )  

     reciprocal axes: (cart. coord. in units 2 pi/alat)
               b(1) = (  1.000000  0.577350 -0.000000 )  
               b(2) = (  0.000000  1.154701  0.000000 )  
               b(3) = (  0.000000 -0.000000  1.492537 )  


     PseudoPot. # 1 for C  read from file:
     /root/Desktop/pseudo/C.pbe-n-kjpaw_psl.1.0.0.UPF
     MD5 check sum: 5d2aebdfa2cae82b50a7e79e9516da0f
     Pseudo is Projector augmented-wave + core cor, Zval =  4.0
     Generated using "atomic" code by A. Dal Corso  v.5.1
     Shape of augmentation charge: PSQ
     Using radial grid of 1073 points,  4 beta functions with: 
                l(1) =   0
                l(2) =   0
                l(3) =   1
                l(4) =   1
     Q(r) pseudized with 0 coefficients 


     atomic species   valence    mass     pseudopotential
        C              4.00    12.01070     C ( 1.00)

     24 Sym. Ops., with inversion, found (12 have fractional translation)



   Cartesian axes

     site n.     atom                  positions (alat units)
         1           C   tau(   1) = (   0.0000000   0.0000000   0.0000000  )
         2           C   tau(   2) = (   0.0000000   0.5773503   0.0000000  )

     number of k points=    12
                       cart. coord. in units 2pi/alat
        k(    1) = (   0.0000000   0.0000000   0.0000000), wk =   0.0246914
        k(    2) = (   0.0000000   0.1283001   0.0000000), wk =   0.1481481
        k(    3) = (   0.0000000   0.2566001   0.0000000), wk =   0.1481481
        k(    4) = (   0.0000000   0.3849002   0.0000000), wk =   0.1481481
        k(    5) = (   0.0000000   0.5132002   0.0000000), wk =   0.1481481
        k(    6) = (   0.1111111   0.1924501   0.0000000), wk =   0.1481481
        k(    7) = (   0.1111111   0.3207501   0.0000000), wk =   0.2962963
        k(    8) = (   0.1111111   0.4490502   0.0000000), wk =   0.2962963
        k(    9) = (   0.1111111   0.5773503   0.0000000), wk =   0.1481481
        k(   10) = (   0.2222222   0.3849002   0.0000000), wk =   0.1481481
        k(   11) = (   0.2222222   0.5132002   0.0000000), wk =   0.2962963
        k(   12) = (   0.3333333   0.5773503   0.0000000), wk =   0.0493827

     Dense  grid:     2811 G-vectors     FFT dimensions: (  24,  24,  15)

     Smooth grid:      705 G-vectors     FFT dimensions: (  15,  15,   9)

     Estimated max dynamical RAM per process >       4.09 MB

     Check: negative core charge=   -0.000082

     Initial potential from superposition of free atoms

     starting charge       7.9999, renormalised to       8.0000
     Starting wfcs are    8 randomized atomic wfcs

     total cpu time spent up to now is        0.7 secs

     Self-consistent Calculation

     iteration #  1     ecut=    20.00 Ry     beta= 0.70
     Davidson diagonalization with overlap
     ethr =  1.00E-02,  avg # of iterations =  2.1

     Threshold (ethr) on eigenvalues was too large:
     Diagonalizing with lowered threshold

     Davidson diagonalization with overlap
     ethr =  3.92E-04,  avg # of iterations =  2.2

     total cpu time spent up to now is        1.0 secs

     total energy              =     -36.66601947 Ry
     estimated scf accuracy    <       0.03362030 Ry

     iteration #  2     ecut=    20.00 Ry     beta= 0.70
     Davidson diagonalization with overlap
     ethr =  4.20E-04,  avg # of iterations =  1.0

     total cpu time spent up to now is        1.8 secs

     total energy              =     -36.66733435 Ry
     estimated scf accuracy    <       0.00155301 Ry

     iteration #  3     ecut=    20.00 Ry     beta= 0.70
     Davidson diagonalization with overlap
     ethr =  1.94E-05,  avg # of iterations =  1.8

     total cpu time spent up to now is        2.2 secs

     total energy              =     -36.66750242 Ry
     estimated scf accuracy    <       0.00002633 Ry

     iteration #  4     ecut=    20.00 Ry     beta= 0.70
     Davidson diagonalization with overlap
     c_bands:  1 eigenvalues not converged
     ethr =  3.29E-07,  avg # of iterations =  5.5

     total cpu time spent up to now is        2.7 secs

     total energy              =     -36.66752002 Ry
     estimated scf accuracy    <       0.00000067 Ry

     iteration #  5     ecut=    20.00 Ry     beta= 0.70
     Davidson diagonalization with overlap
     c_bands:  1 eigenvalues not converged
     ethr =  8.39E-09,  avg # of iterations =  4.7

     total cpu time spent up to now is        3.2 secs

     total energy              =     -36.66762992 Ry
     estimated scf accuracy    <       0.00003181 Ry

     iteration #  6     ecut=    20.00 Ry     beta= 0.70
     Davidson diagonalization with overlap
     c_bands:  1 eigenvalues not converged
     ethr =  8.39E-09,  avg # of iterations =  3.7

     total cpu time spent up to now is        3.5 secs

     total energy              =     -36.66787727 Ry
     estimated scf accuracy    <       0.00032986 Ry

     iteration #  7     ecut=    20.00 Ry     beta= 0.70
     Davidson diagonalization with overlap
     c_bands:  1 eigenvalues not converged
     ethr =  8.39E-09,  avg # of iterations =  2.6

     total cpu time spent up to now is        3.7 secs

     total energy              =     -36.66796160 Ry
     estimated scf accuracy    <       0.00071668 Ry

     iteration #  8     ecut=    20.00 Ry     beta= 0.70
     Davidson diagonalization with overlap
     c_bands:  1 eigenvalues not converged
     ethr =  8.39E-09,  avg # of iterations =  5.6

     total cpu time spent up to now is        4.1 secs

     total energy              =     -36.66801053 Ry
     estimated scf accuracy    <       0.00048024 Ry

     iteration #  9     ecut=    20.00 Ry     beta= 0.70
     Davidson diagonalization with overlap
     c_bands:  1 eigenvalues not converged
     ethr =  8.39E-09,  avg # of iterations =  4.2

     total cpu time spent up to now is        4.4 secs

     total energy              =     -36.66814159 Ry
     estimated scf accuracy    <       0.00059821 Ry

     iteration # 10     ecut=    20.00 Ry     beta= 0.70
     Davidson diagonalization with overlap
     c_bands:  1 eigenvalues not converged
     ethr =  8.39E-09,  avg # of iterations =  5.8

     total cpu time spent up to now is        4.7 secs

     total energy              =     -36.66876510 Ry
     estimated scf accuracy    <       0.00090437 Ry

     iteration # 11     ecut=    20.00 Ry     beta= 0.70
     Davidson diagonalization with overlap
     ethr =  8.39E-09,  avg # of iterations =  6.2

     total cpu time spent up to now is        5.0 secs

     total energy              =     -36.66751416 Ry
     estimated scf accuracy    <       0.00255196 Ry

     iteration # 12     ecut=    20.00 Ry     beta= 0.70
     Davidson diagonalization with overlap
     ethr =  8.39E-09,  avg # of iterations =  6.9

     total cpu time spent up to now is        5.4 secs

     total energy              =     -36.66778336 Ry
     estimated scf accuracy    <       0.00000022 Ry

     iteration # 13     ecut=    20.00 Ry     beta= 0.70
     Davidson diagonalization with overlap
     ethr =  2.78E-09,  avg # of iterations =  3.8

     total cpu time spent up to now is        5.8 secs

     total energy              =     -36.66778247 Ry
     estimated scf accuracy    <       0.00000327 Ry

     iteration # 14     ecut=    20.00 Ry     beta= 0.70
     Davidson diagonalization with overlap
     ethr =  2.78E-09,  avg # of iterations =  3.2

     total cpu time spent up to now is        6.1 secs

     total energy              =     -36.66778261 Ry
     estimated scf accuracy    <       0.00000016 Ry

     iteration # 15     ecut=    20.00 Ry     beta= 0.70
     Davidson diagonalization with overlap
     ethr =  2.03E-09,  avg # of iterations =  2.3

     total cpu time spent up to now is        6.5 secs

     total energy              =     -36.66778264 Ry
     estimated scf accuracy    <       0.00000003 Ry

     iteration # 16     ecut=    20.00 Ry     beta= 0.70
     Davidson diagonalization with overlap
     ethr =  3.21E-10,  avg # of iterations =  1.8

     total cpu time spent up to now is        6.8 secs

     End of self-consistent calculation

          k = 0.0000 0.0000 0.0000 (    83 PWs)   bands (ev):

    -7.5371  11.6365  11.6365  22.2436

          k = 0.0000 0.1283 0.0000 (    87 PWs)   bands (ev):

    -7.2252   9.9054  11.0412  22.1491

          k = 0.0000 0.2566 0.0000 (    92 PWs)   bands (ev):

    -6.3028   6.7169   9.7164  21.0161

          k = 0.0000 0.3849 0.0000 (    88 PWs)   bands (ev):

    -4.7943   3.4509   8.6703  20.0799

          k = 0.0000 0.5132 0.0000 (    86 PWs)   bands (ev):

    -2.8813   0.5270   8.0948  19.5434

          k = 0.1111 0.1925 0.0000 (    93 PWs)   bands (ev):

    -6.6115   7.8439   9.6276  23.1719

          k = 0.1111 0.3208 0.0000 (    90 PWs)   bands (ev):

    -5.3912   5.0317   8.0421  22.1342

          k = 0.1111 0.4491 0.0000 (    87 PWs)   bands (ev):

    -3.6296   2.0038   7.0933  21.3849

          k = 0.1111 0.5774 0.0000 (    86 PWs)   bands (ev):

    -2.0622  -0.0497   6.7809  21.1280

          k = 0.2222 0.3849 0.0000 (    89 PWs)   bands (ev):

    -3.9066   3.1274   5.8644  25.1544

          k = 0.2222 0.5132 0.0000 (    86 PWs)   bands (ev):

    -2.0028   0.8977   4.7945  24.8500

          k = 0.3333 0.5774 0.0000 (    93 PWs)   bands (ev):

    -0.3252  -0.3252   3.5668  28.5258

     highest occupied level (ev):    28.5258

!    total energy              =     -36.66778264 Ry
     total all-electron energy =      -152.195978 Ry
     estimated scf accuracy    <          8.6E-11 Ry

     The total energy is the sum of the following terms:
     one-electron contribution =      12.36361810 Ry
     hartree contribution      =       1.07192858 Ry
     xc contribution           =      -9.59061575 Ry
     ewald contribution        =     -28.08933684 Ry
     one-center paw contrib.   =     -12.42337673 Ry

     convergence has been achieved in  16 iterations

     Writing all to output data dir ./graphene.save/

     init_run     :      0.47s CPU      0.47s WALL (       1 calls)
     electrons    :      8.03s CPU      6.26s WALL (       1 calls)

     Called by init_run:
     wfcinit      :      0.07s CPU      0.04s WALL (       1 calls)
     potinit      :      0.12s CPU      0.13s WALL (       1 calls)
     hinit0       :      0.28s CPU      0.28s WALL (       1 calls)

     Called by electrons:
     c_bands      :      1.65s CPU      1.35s WALL (      17 calls)
     sum_band     :      0.39s CPU      0.30s WALL (      17 calls)
     v_of_rho     :      0.37s CPU      0.18s WALL (      17 calls)
     newd         :      0.88s CPU      1.31s WALL (      17 calls)
     PAW_pot      :      4.15s CPU      2.59s WALL (      17 calls)
     mix_rho      :      0.02s CPU      0.02s WALL (      17 calls)

     Called by c_bands:
     init_us_2    :      0.03s CPU      0.02s WALL (     420 calls)
     init_us_2:cp :      0.03s CPU      0.02s WALL (     420 calls)
     cegterg      :      0.64s CPU      0.43s WALL (     204 calls)

     Called by *egterg:
     cdiaghg      :      0.15s CPU      0.08s WALL (     953 calls)
     h_psi        :      0.43s CPU      0.29s WALL (     977 calls)
     s_psi        :      0.03s CPU      0.03s WALL (     977 calls)
     g_psi        :      0.00s CPU      0.00s WALL (     761 calls)

     Called by h_psi:
     h_psi:calbec :      0.03s CPU      0.02s WALL (     977 calls)
     vloc_psi     :      0.37s CPU      0.24s WALL (     977 calls)
     add_vuspsi   :      0.02s CPU      0.02s WALL (     977 calls)

     General routines
     calbec       :      0.03s CPU      0.02s WALL (    1181 calls)
     fft          :      0.20s CPU      0.17s WALL (     220 calls)
     ffts         :      0.02s CPU      0.02s WALL (      34 calls)
     fftw         :      0.26s CPU      0.17s WALL (    6326 calls)
     interpolate  :      0.02s CPU      0.03s WALL (      17 calls)


     PWSCF        :      8.71s CPU      7.29s WALL


   This run was terminated on:  10:57:15  20Mar2025            

=------------------------------------------------------------------------------=
   JOB DONE.
=------------------------------------------------------------------------------=
