
     Program PWSCF v.7.2 starts on 20Mar2025 at 10:56:50 

     This program is part of the open-source Quantum ESPRESSO suite
     for quantum simulation of materials; please cite
         "P. Giannozzi et al., J. Phys.:Condens. Matter 21 395502 (2009);
         "P. Giannozzi et al., J. Phys.:Condens. Matter 29 465901 (2017);
         "P. Giannozzi et al., J. Chem. Phys. 152 154105 (2020);
          URL http://www.quantum-espresso.org", 
     in publications or presentations arising from this work. More details at
     http://www.quantum-espresso.org/quote

     Serial version
     2195 MiB available memory on the printing compute node when the environment starts

     Waiting for input...
     Reading input from standard input

     Current dimensions of program PWSCF are:
     Max number of different atomic species (ntypx) = 10
     Max number of k-points (npk) =  40000
     Max angular momentum in pseudopotentials (lmaxx) =  4
     file C.pbe-n-kjpaw_psl.1.0.0.UPF: wavefunction(s)  2S 2P renormalized


     G-vector sticks info
     --------------------
     sticks:   dense  smooth     PW     G-vecs:    dense   smooth      PW
     Sum         301     121     37                 2267      583     125

     Using Slab Decomposition



     bravais-lattice index     =            4
     lattice parameter (alat)  =       4.6540  a.u.
     unit-cell volume          =      48.0145 (a.u.)^3
     number of atoms/cell      =            2
     number of atomic types    =            1
     number of electrons       =         8.00
     number of Kohn-Sham states=            4
     kinetic-energy cutoff     =      20.0000  Ry
     charge density cutoff     =     200.0000  Ry
     scf convergence threshold =      1.0E-08
     mixing beta               =       0.7000
     number of iterations used =            8  plain     mixing
     Exchange-correlation= SLA  PW   PBX  PBC
                           (   1   4   3   4   0   0   0)

     celldm(1)=   4.654000  celldm(2)=   0.000000  celldm(3)=   0.550000
     celldm(4)=   0.000000  celldm(5)=   0.000000  celldm(6)=   0.000000

     crystal axes: (cart. coord. in units of alat)
               a(1) = (   1.000000   0.000000   0.000000 )  
               a(2) = (  -0.500000   0.866025   0.000000 )  
               a(3) = (   0.000000   0.000000   0.550000 )  

     reciprocal axes: (cart. coord. in units 2 pi/alat)
               b(1) = (  1.000000  0.577350 -0.000000 )  
               b(2) = (  0.000000  1.154701  0.000000 )  
               b(3) = (  0.000000 -0.000000  1.818182 )  


     PseudoPot. # 1 for C  read from file:
     /root/Desktop/pseudo/C.pbe-n-kjpaw_psl.1.0.0.UPF
     MD5 check sum: 5d2aebdfa2cae82b50a7e79e9516da0f
     Pseudo is Projector augmented-wave + core cor, Zval =  4.0
     Generated using "atomic" code by A. Dal Corso  v.5.1
     Shape of augmentation charge: PSQ
     Using radial grid of 1073 points,  4 beta functions with: 
                l(1) =   0
                l(2) =   0
                l(3) =   1
                l(4) =   1
     Q(r) pseudized with 0 coefficients 


     atomic species   valence    mass     pseudopotential
        C              4.00    12.01070     C ( 1.00)

     24 Sym. Ops., with inversion, found (12 have fractional translation)



   Cartesian axes

     site n.     atom                  positions (alat units)
         1           C   tau(   1) = (   0.0000000   0.0000000   0.0000000  )
         2           C   tau(   2) = (   0.0000000   0.5773503   0.0000000  )

     number of k points=    12
                       cart. coord. in units 2pi/alat
        k(    1) = (   0.0000000   0.0000000   0.0000000), wk =   0.0246914
        k(    2) = (   0.0000000   0.1283001   0.0000000), wk =   0.1481481
        k(    3) = (   0.0000000   0.2566001   0.0000000), wk =   0.1481481
        k(    4) = (   0.0000000   0.3849002   0.0000000), wk =   0.1481481
        k(    5) = (   0.0000000   0.5132002   0.0000000), wk =   0.1481481
        k(    6) = (   0.1111111   0.1924501   0.0000000), wk =   0.1481481
        k(    7) = (   0.1111111   0.3207501   0.0000000), wk =   0.2962963
        k(    8) = (   0.1111111   0.4490502   0.0000000), wk =   0.2962963
        k(    9) = (   0.1111111   0.5773503   0.0000000), wk =   0.1481481
        k(   10) = (   0.2222222   0.3849002   0.0000000), wk =   0.1481481
        k(   11) = (   0.2222222   0.5132002   0.0000000), wk =   0.2962963
        k(   12) = (   0.3333333   0.5773503   0.0000000), wk =   0.0493827

     Dense  grid:     2267 G-vectors     FFT dimensions: (  24,  24,  12)

     Smooth grid:      583 G-vectors     FFT dimensions: (  15,  15,   8)

     Estimated max dynamical RAM per process >       3.36 MB

     Check: negative core charge=   -0.000091

     Initial potential from superposition of free atoms

     starting charge       7.9999, renormalised to       8.0000
     Starting wfcs are    8 randomized atomic wfcs

     total cpu time spent up to now is        0.6 secs

     Self-consistent Calculation

     iteration #  1     ecut=    20.00 Ry     beta= 0.70
     Davidson diagonalization with overlap
     ethr =  1.00E-02,  avg # of iterations =  2.0

     Threshold (ethr) on eigenvalues was too large:
     Diagonalizing with lowered threshold

     Davidson diagonalization with overlap
     ethr =  4.07E-04,  avg # of iterations =  1.2

     total cpu time spent up to now is        1.1 secs

     total energy              =     -37.59790669 Ry
     estimated scf accuracy    <       0.03167675 Ry

     iteration #  2     ecut=    20.00 Ry     beta= 0.70
     Davidson diagonalization with overlap
     ethr =  3.96E-04,  avg # of iterations =  2.1

     total cpu time spent up to now is        1.5 secs

     total energy              =     -37.60116857 Ry
     estimated scf accuracy    <       0.00120488 Ry

     iteration #  3     ecut=    20.00 Ry     beta= 0.70
     Davidson diagonalization with overlap
     ethr =  1.51E-05,  avg # of iterations =  2.3

     total cpu time spent up to now is        2.1 secs

     total energy              =     -37.60149124 Ry
     estimated scf accuracy    <       0.00009272 Ry

     iteration #  4     ecut=    20.00 Ry     beta= 0.70
     Davidson diagonalization with overlap
     ethr =  1.16E-06,  avg # of iterations =  3.1

     total cpu time spent up to now is        2.5 secs

     total energy              =     -37.60151242 Ry
     estimated scf accuracy    <       0.00000899 Ry

     iteration #  5     ecut=    20.00 Ry     beta= 0.70
     Davidson diagonalization with overlap
     ethr =  1.12E-07,  avg # of iterations =  2.8

     total cpu time spent up to now is        3.2 secs

     total energy              =     -37.60151434 Ry
     estimated scf accuracy    <       0.00000050 Ry

     iteration #  6     ecut=    20.00 Ry     beta= 0.70
     Davidson diagonalization with overlap
     ethr =  6.21E-09,  avg # of iterations =  3.1

     total cpu time spent up to now is        3.5 secs

     total energy              =     -37.60151450 Ry
     estimated scf accuracy    <       0.00000001 Ry

     iteration #  7     ecut=    20.00 Ry     beta= 0.70
     Davidson diagonalization with overlap
     ethr =  1.69E-10,  avg # of iterations =  3.7

     total cpu time spent up to now is        3.9 secs

     End of self-consistent calculation

          k = 0.0000 0.0000 0.0000 (    69 PWs)   bands (ev):

    -6.6363  12.3154  12.3154  22.4452

          k = 0.0000 0.1283 0.0000 (    69 PWs)   bands (ev):

    -6.3313  10.7492  11.7533  22.9024

          k = 0.0000 0.2566 0.0000 (    70 PWs)   bands (ev):

    -5.4283   7.5797  10.6165  22.0246

          k = 0.0000 0.3849 0.0000 (    72 PWs)   bands (ev):

    -3.9595   4.2423   9.6083  21.0848

          k = 0.0000 0.5132 0.0000 (    74 PWs)   bands (ev):

    -2.1162   1.4258   8.9124  20.5885

          k = 0.1111 0.1925 0.0000 (    71 PWs)   bands (ev):

    -5.7304   8.6909  10.5708  23.8768

          k = 0.1111 0.3208 0.0000 (    72 PWs)   bands (ev):

    -4.5421   5.8003   9.0813  23.1449

          k = 0.1111 0.4491 0.0000 (    73 PWs)   bands (ev):

    -2.8347   2.7847   8.1339  22.4249

          k = 0.1111 0.5774 0.0000 (    72 PWs)   bands (ev):

    -1.3559   0.8778   7.7723  22.1933

          k = 0.2222 0.3849 0.0000 (    71 PWs)   bands (ev):

    -3.0985   3.8421   7.0488  26.0625

          k = 0.2222 0.5132 0.0000 (    68 PWs)   bands (ev):

    -1.2651   1.6824   5.9831  25.9899

          k = 0.3333 0.5774 0.0000 (    69 PWs)   bands (ev):

     0.4119   0.4119   4.8640  29.6639

     highest occupied level (ev):    29.6639

!    total energy              =     -37.60151451 Ry
     total all-electron energy =      -153.129710 Ry
     estimated scf accuracy    <          2.5E-10 Ry

     The total energy is the sum of the following terms:
     one-electron contribution =      13.24483214 Ry
     hartree contribution      =       1.20135870 Ry
     xc contribution           =     -10.00946331 Ry
     ewald contribution        =     -29.54844126 Ry
     one-center paw contrib.   =     -12.48980078 Ry

     convergence has been achieved in   7 iterations

     Writing all to output data dir ./graphene.save/

     init_run     :      0.39s CPU      0.46s WALL (       1 calls)
     electrons    :      3.98s CPU      3.32s WALL (       1 calls)

     Called by init_run:
     wfcinit      :      0.03s CPU      0.03s WALL (       1 calls)
     potinit      :      0.11s CPU      0.11s WALL (       1 calls)
     hinit0       :      0.24s CPU      0.24s WALL (       1 calls)

     Called by electrons:
     c_bands      :      0.85s CPU      0.77s WALL (       8 calls)
     sum_band     :      0.21s CPU      0.20s WALL (       8 calls)
     v_of_rho     :      0.20s CPU      0.12s WALL (       8 calls)
     newd         :      0.35s CPU      0.60s WALL (       8 calls)
     PAW_pot      :      2.19s CPU      1.52s WALL (       8 calls)
     mix_rho      :      0.00s CPU      0.00s WALL (       8 calls)

     Called by c_bands:
     init_us_2    :      0.01s CPU      0.01s WALL (     204 calls)
     init_us_2:cp :      0.01s CPU      0.01s WALL (     204 calls)
     cegterg      :      0.23s CPU      0.15s WALL (      96 calls)

     Called by *egterg:
     cdiaghg      :      0.03s CPU      0.03s WALL (     327 calls)
     h_psi        :      0.18s CPU      0.11s WALL (     351 calls)
     s_psi        :      0.01s CPU      0.00s WALL (     351 calls)
     g_psi        :      0.00s CPU      0.00s WALL (     243 calls)

     Called by h_psi:
     h_psi:calbec :      0.01s CPU      0.01s WALL (     351 calls)
     vloc_psi     :      0.16s CPU      0.10s WALL (     351 calls)
     add_vuspsi   :      0.01s CPU      0.01s WALL (     351 calls)

     General routines
     calbec       :      0.01s CPU      0.01s WALL (     447 calls)
     fft          :      0.19s CPU      0.16s WALL (     103 calls)
     ffts         :      0.02s CPU      0.02s WALL (      16 calls)
     fftw         :      0.12s CPU      0.08s WALL (    2580 calls)
     interpolate  :      0.02s CPU      0.03s WALL (       8 calls)


     PWSCF        :      4.63s CPU      4.30s WALL


   This run was terminated on:  10:56:54  20Mar2025            

=------------------------------------------------------------------------------=
   JOB DONE.
=------------------------------------------------------------------------------=
