
     Program PWSCF v.7.2 starts on 20Mar2025 at 10:56:43 

     This program is part of the open-source Quantum ESPRESSO suite
     for quantum simulation of materials; please cite
         "P. Giannozzi et al., J. Phys.:Condens. Matter 21 395502 (2009);
         "P. Giannozzi et al., J. Phys.:Condens. Matter 29 465901 (2017);
         "P. Giannozzi et al., J. Chem. Phys. 152 154105 (2020);
          URL http://www.quantum-espresso.org", 
     in publications or presentations arising from this work. More details at
     http://www.quantum-espresso.org/quote

     Serial version
     2207 MiB available memory on the printing compute node when the environment starts

     Waiting for input...
     Reading input from standard input

     Current dimensions of program PWSCF are:
     Max number of different atomic species (ntypx) = 10
     Max number of k-points (npk) =  40000
     Max angular momentum in pseudopotentials (lmaxx) =  4
     file C.pbe-n-kjpaw_psl.1.0.0.UPF: wavefunction(s)  2S 2P renormalized


     G-vector sticks info
     --------------------
     sticks:   dense  smooth     PW     G-vecs:    dense   smooth      PW
     Sum         301     121     37                 2075      523      99

     Using Slab Decomposition



     bravais-lattice index     =            4
     lattice parameter (alat)  =       4.6540  a.u.
     unit-cell volume          =      42.7766 (a.u.)^3
     number of atoms/cell      =            2
     number of atomic types    =            1
     number of electrons       =         8.00
     number of Kohn-Sham states=            4
     kinetic-energy cutoff     =      20.0000  Ry
     charge density cutoff     =     200.0000  Ry
     scf convergence threshold =      1.0E-08
     mixing beta               =       0.7000
     number of iterations used =            8  plain     mixing
     Exchange-correlation= SLA  PW   PBX  PBC
                           (   1   4   3   4   0   0   0)

     celldm(1)=   4.654000  celldm(2)=   0.000000  celldm(3)=   0.490000
     celldm(4)=   0.000000  celldm(5)=   0.000000  celldm(6)=   0.000000

     crystal axes: (cart. coord. in units of alat)
               a(1) = (   1.000000   0.000000   0.000000 )  
               a(2) = (  -0.500000   0.866025   0.000000 )  
               a(3) = (   0.000000   0.000000   0.490000 )  

     reciprocal axes: (cart. coord. in units 2 pi/alat)
               b(1) = (  1.000000  0.577350 -0.000000 )  
               b(2) = (  0.000000  1.154701  0.000000 )  
               b(3) = (  0.000000 -0.000000  2.040816 )  


     PseudoPot. # 1 for C  read from file:
     /root/Desktop/pseudo/C.pbe-n-kjpaw_psl.1.0.0.UPF
     MD5 check sum: 5d2aebdfa2cae82b50a7e79e9516da0f
     Pseudo is Projector augmented-wave + core cor, Zval =  4.0
     Generated using "atomic" code by A. Dal Corso  v.5.1
     Shape of augmentation charge: PSQ
     Using radial grid of 1073 points,  4 beta functions with: 
                l(1) =   0
                l(2) =   0
                l(3) =   1
                l(4) =   1
     Q(r) pseudized with 0 coefficients 


     atomic species   valence    mass     pseudopotential
        C              4.00    12.01070     C ( 1.00)

     24 Sym. Ops., with inversion, found (12 have fractional translation)



   Cartesian axes

     site n.     atom                  positions (alat units)
         1           C   tau(   1) = (   0.0000000   0.0000000   0.0000000  )
         2           C   tau(   2) = (   0.0000000   0.5773503   0.0000000  )

     number of k points=    12
                       cart. coord. in units 2pi/alat
        k(    1) = (   0.0000000   0.0000000   0.0000000), wk =   0.0246914
        k(    2) = (   0.0000000   0.1283001   0.0000000), wk =   0.1481481
        k(    3) = (   0.0000000   0.2566001   0.0000000), wk =   0.1481481
        k(    4) = (   0.0000000   0.3849002   0.0000000), wk =   0.1481481
        k(    5) = (   0.0000000   0.5132002   0.0000000), wk =   0.1481481
        k(    6) = (   0.1111111   0.1924501   0.0000000), wk =   0.1481481
        k(    7) = (   0.1111111   0.3207501   0.0000000), wk =   0.2962963
        k(    8) = (   0.1111111   0.4490502   0.0000000), wk =   0.2962963
        k(    9) = (   0.1111111   0.5773503   0.0000000), wk =   0.1481481
        k(   10) = (   0.2222222   0.3849002   0.0000000), wk =   0.1481481
        k(   11) = (   0.2222222   0.5132002   0.0000000), wk =   0.2962963
        k(   12) = (   0.3333333   0.5773503   0.0000000), wk =   0.0493827

     Dense  grid:     2075 G-vectors     FFT dimensions: (  24,  24,  12)

     Smooth grid:      523 G-vectors     FFT dimensions: (  15,  15,   8)

     Estimated max dynamical RAM per process >       3.14 MB

     Check: negative core charge=   -0.000090

     Initial potential from superposition of free atoms

     starting charge       7.9999, renormalised to       8.0000
     Starting wfcs are    8 randomized atomic wfcs

     total cpu time spent up to now is        0.5 secs

     Self-consistent Calculation

     iteration #  1     ecut=    20.00 Ry     beta= 0.70
     Davidson diagonalization with overlap
     ethr =  1.00E-02,  avg # of iterations =  2.0

     Threshold (ethr) on eigenvalues was too large:
     Diagonalizing with lowered threshold

     Davidson diagonalization with overlap
     ethr =  8.02E-04,  avg # of iterations =  1.0

     total cpu time spent up to now is        0.9 secs

     total energy              =     -37.96648469 Ry
     estimated scf accuracy    <       0.06491272 Ry

     iteration #  2     ecut=    20.00 Ry     beta= 0.70
     Davidson diagonalization with overlap
     ethr =  8.11E-04,  avg # of iterations =  2.3

     total cpu time spent up to now is        1.1 secs

     total energy              =     -37.97570754 Ry
     estimated scf accuracy    <       0.00134748 Ry

     iteration #  3     ecut=    20.00 Ry     beta= 0.70
     Davidson diagonalization with overlap
     ethr =  1.68E-05,  avg # of iterations =  2.5

     total cpu time spent up to now is        1.3 secs

     total energy              =     -37.97608147 Ry
     estimated scf accuracy    <       0.00014497 Ry

     iteration #  4     ecut=    20.00 Ry     beta= 0.70
     Davidson diagonalization with overlap
     ethr =  1.81E-06,  avg # of iterations =  3.1

     total cpu time spent up to now is        1.7 secs

     total energy              =     -37.97611117 Ry
     estimated scf accuracy    <       0.00001749 Ry

     iteration #  5     ecut=    20.00 Ry     beta= 0.70
     Davidson diagonalization with overlap
     ethr =  2.19E-07,  avg # of iterations =  2.7

     total cpu time spent up to now is        2.5 secs

     total energy              =     -37.97611372 Ry
     estimated scf accuracy    <       0.00000055 Ry

     iteration #  6     ecut=    20.00 Ry     beta= 0.70
     Davidson diagonalization with overlap
     ethr =  6.93E-09,  avg # of iterations =  3.2

     total cpu time spent up to now is        2.7 secs

     total energy              =     -37.97611404 Ry
     estimated scf accuracy    <       0.00000007 Ry

     iteration #  7     ecut=    20.00 Ry     beta= 0.70
     Davidson diagonalization with overlap
     ethr =  8.68E-10,  avg # of iterations =  1.9

     total cpu time spent up to now is        2.8 secs

     End of self-consistent calculation

          k = 0.0000 0.0000 0.0000 (    69 PWs)   bands (ev):

    -6.0361  12.2820  12.2820  22.7487

          k = 0.0000 0.1283 0.0000 (    69 PWs)   bands (ev):

    -5.7393  10.8053  11.7504  23.2591

          k = 0.0000 0.2566 0.0000 (    70 PWs)   bands (ev):

    -4.8613   7.7649  10.6603  22.5383

          k = 0.0000 0.3849 0.0000 (    66 PWs)   bands (ev):

    -3.4294   4.6822   9.6874  21.7513

          k = 0.0000 0.5132 0.0000 (    70 PWs)   bands (ev):

    -1.6397   1.8403   9.1328  21.2404

          k = 0.1111 0.1925 0.0000 (    71 PWs)   bands (ev):

    -5.1551   8.8245  10.6379  24.1689

          k = 0.1111 0.3208 0.0000 (    66 PWs)   bands (ev):

    -3.9944   6.1572   9.2679  23.6707

          k = 0.1111 0.4491 0.0000 (    65 PWs)   bands (ev):

    -2.3355   3.2264   8.4248  23.0108

          k = 0.1111 0.5774 0.0000 (    68 PWs)   bands (ev):

    -0.9112   1.3130   8.0751  22.7711

          k = 0.2222 0.3849 0.0000 (    63 PWs)   bands (ev):

    -2.5885   4.2297   7.3874  26.4609

          k = 0.2222 0.5132 0.0000 (    66 PWs)   bands (ev):

    -0.8229   2.0662   6.3264  26.3935

          k = 0.3333 0.5774 0.0000 (    63 PWs)   bands (ev):

     0.8089   0.8089   5.3854  30.0018

     highest occupied level (ev):    30.0018

!    total energy              =     -37.97611404 Ry
     total all-electron energy =      -153.504310 Ry
     estimated scf accuracy    <          8.9E-09 Ry

     The total energy is the sum of the following terms:
     one-electron contribution =      13.43731640 Ry
     hartree contribution      =       1.44343134 Ry
     xc contribution           =     -10.32296367 Ry
     ewald contribution        =     -29.98981314 Ry
     one-center paw contrib.   =     -12.54408496 Ry

     convergence has been achieved in   7 iterations

     Writing all to output data dir ./graphene.save/

     init_run     :      0.30s CPU      0.31s WALL (       1 calls)
     electrons    :      2.97s CPU      2.40s WALL (       1 calls)

     Called by init_run:
     wfcinit      :      0.04s CPU      0.03s WALL (       1 calls)
     potinit      :      0.07s CPU      0.08s WALL (       1 calls)
     hinit0       :      0.19s CPU      0.19s WALL (       1 calls)

     Called by electrons:
     c_bands      :      0.51s CPU      0.42s WALL (       8 calls)
     sum_band     :      0.09s CPU      0.09s WALL (       8 calls)
     v_of_rho     :      0.05s CPU      0.03s WALL (       8 calls)
     newd         :      0.71s CPU      0.90s WALL (       8 calls)
     PAW_pot      :      1.29s CPU      0.77s WALL (       8 calls)
     mix_rho      :      0.00s CPU      0.00s WALL (       8 calls)

     Called by c_bands:
     init_us_2    :      0.03s CPU      0.01s WALL (     204 calls)
     init_us_2:cp :      0.03s CPU      0.01s WALL (     204 calls)
     cegterg      :      0.12s CPU      0.07s WALL (      96 calls)

     Called by *egterg:
     cdiaghg      :      0.03s CPU      0.01s WALL (     309 calls)
     h_psi        :      0.09s CPU      0.06s WALL (     333 calls)
     s_psi        :      0.00s CPU      0.00s WALL (     333 calls)
     g_psi        :      0.00s CPU      0.00s WALL (     225 calls)

     Called by h_psi:
     h_psi:calbec :      0.01s CPU      0.01s WALL (     333 calls)
     vloc_psi     :      0.06s CPU      0.04s WALL (     333 calls)
     add_vuspsi   :      0.00s CPU      0.00s WALL (     333 calls)

     General routines
     calbec       :      0.00s CPU      0.00s WALL (     429 calls)
     fft          :      0.14s CPU      0.12s WALL (     103 calls)
     ffts         :      0.02s CPU      0.02s WALL (      16 calls)
     fftw         :      0.05s CPU      0.04s WALL (    2554 calls)
     interpolate  :      0.04s CPU      0.02s WALL (       8 calls)


     PWSCF        :      3.53s CPU      3.41s WALL


   This run was terminated on:  10:56:47  20Mar2025            

=------------------------------------------------------------------------------=
   JOB DONE.
=------------------------------------------------------------------------------=
