
     Program PWSCF v.7.2 starts on 20Mar2025 at 10:56:36 

     This program is part of the open-source Quantum ESPRESSO suite
     for quantum simulation of materials; please cite
         "P. Giannozzi et al., J. Phys.:Condens. Matter 21 395502 (2009);
         "P. Giannozzi et al., J. Phys.:Condens. Matter 29 465901 (2017);
         "P. Giannozzi et al., J. Chem. Phys. 152 154105 (2020);
          URL http://www.quantum-espresso.org", 
     in publications or presentations arising from this work. More details at
     http://www.quantum-espresso.org/quote

     Serial version
     2197 MiB available memory on the printing compute node when the environment starts

     Waiting for input...
     Reading input from standard input

     Current dimensions of program PWSCF are:
     Max number of different atomic species (ntypx) = 10
     Max number of k-points (npk) =  40000
     Max angular momentum in pseudopotentials (lmaxx) =  4
     file C.pbe-n-kjpaw_psl.1.0.0.UPF: wavefunction(s)  2S 2P renormalized


     G-vector sticks info
     --------------------
     sticks:   dense  smooth     PW     G-vecs:    dense   smooth      PW
     Sum         301     121     37                 1701      449      99

     Using Slab Decomposition



     bravais-lattice index     =            4
     lattice parameter (alat)  =       4.6540  a.u.
     unit-cell volume          =      34.9196 (a.u.)^3
     number of atoms/cell      =            2
     number of atomic types    =            1
     number of electrons       =         8.00
     number of Kohn-Sham states=            4
     kinetic-energy cutoff     =      20.0000  Ry
     charge density cutoff     =     200.0000  Ry
     scf convergence threshold =      1.0E-08
     mixing beta               =       0.7000
     number of iterations used =            8  plain     mixing
     Exchange-correlation= SLA  PW   PBX  PBC
                           (   1   4   3   4   0   0   0)

     celldm(1)=   4.654000  celldm(2)=   0.000000  celldm(3)=   0.400000
     celldm(4)=   0.000000  celldm(5)=   0.000000  celldm(6)=   0.000000

     crystal axes: (cart. coord. in units of alat)
               a(1) = (   1.000000   0.000000   0.000000 )  
               a(2) = (  -0.500000   0.866025   0.000000 )  
               a(3) = (   0.000000   0.000000   0.400000 )  

     reciprocal axes: (cart. coord. in units 2 pi/alat)
               b(1) = (  1.000000  0.577350 -0.000000 )  
               b(2) = (  0.000000  1.154701  0.000000 )  
               b(3) = (  0.000000 -0.000000  2.500000 )  


     PseudoPot. # 1 for C  read from file:
     /root/Desktop/pseudo/C.pbe-n-kjpaw_psl.1.0.0.UPF
     MD5 check sum: 5d2aebdfa2cae82b50a7e79e9516da0f
     Pseudo is Projector augmented-wave + core cor, Zval =  4.0
     Generated using "atomic" code by A. Dal Corso  v.5.1
     Shape of augmentation charge: PSQ
     Using radial grid of 1073 points,  4 beta functions with: 
                l(1) =   0
                l(2) =   0
                l(3) =   1
                l(4) =   1
     Q(r) pseudized with 0 coefficients 


     atomic species   valence    mass     pseudopotential
        C              4.00    12.01070     C ( 1.00)

     24 Sym. Ops., with inversion, found (12 have fractional translation)



   Cartesian axes

     site n.     atom                  positions (alat units)
         1           C   tau(   1) = (   0.0000000   0.0000000   0.0000000  )
         2           C   tau(   2) = (   0.0000000   0.5773503   0.0000000  )

     number of k points=    12
                       cart. coord. in units 2pi/alat
        k(    1) = (   0.0000000   0.0000000   0.0000000), wk =   0.0246914
        k(    2) = (   0.0000000   0.1283001   0.0000000), wk =   0.1481481
        k(    3) = (   0.0000000   0.2566001   0.0000000), wk =   0.1481481
        k(    4) = (   0.0000000   0.3849002   0.0000000), wk =   0.1481481
        k(    5) = (   0.0000000   0.5132002   0.0000000), wk =   0.1481481
        k(    6) = (   0.1111111   0.1924501   0.0000000), wk =   0.1481481
        k(    7) = (   0.1111111   0.3207501   0.0000000), wk =   0.2962963
        k(    8) = (   0.1111111   0.4490502   0.0000000), wk =   0.2962963
        k(    9) = (   0.1111111   0.5773503   0.0000000), wk =   0.1481481
        k(   10) = (   0.2222222   0.3849002   0.0000000), wk =   0.1481481
        k(   11) = (   0.2222222   0.5132002   0.0000000), wk =   0.2962963
        k(   12) = (   0.3333333   0.5773503   0.0000000), wk =   0.0493827

     Dense  grid:     1701 G-vectors     FFT dimensions: (  24,  24,   9)

     Smooth grid:      449 G-vectors     FFT dimensions: (  15,  15,   5)

     Estimated max dynamical RAM per process >       2.60 MB

     Check: negative core charge=   -0.000086

     Initial potential from superposition of free atoms

     starting charge       7.9999, renormalised to       8.0000
     Starting wfcs are    8 randomized atomic wfcs

     total cpu time spent up to now is        0.4 secs

     Self-consistent Calculation

     iteration #  1     ecut=    20.00 Ry     beta= 0.70
     Davidson diagonalization with overlap
     ethr =  1.00E-02,  avg # of iterations =  2.0

     total cpu time spent up to now is        0.5 secs

     total energy              =     -37.84290959 Ry
     estimated scf accuracy    <       0.19972532 Ry

     iteration #  2     ecut=    20.00 Ry     beta= 0.70
     Davidson diagonalization with overlap
     ethr =  2.50E-03,  avg # of iterations =  2.4

     total cpu time spent up to now is        0.6 secs

     total energy              =     -37.87763014 Ry
     estimated scf accuracy    <       0.00415229 Ry

     iteration #  3     ecut=    20.00 Ry     beta= 0.70
     Davidson diagonalization with overlap
     ethr =  5.19E-05,  avg # of iterations =  2.7

     total cpu time spent up to now is        0.7 secs

     total energy              =     -37.87899665 Ry
     estimated scf accuracy    <       0.00062893 Ry

     iteration #  4     ecut=    20.00 Ry     beta= 0.70
     Davidson diagonalization with overlap
     ethr =  7.86E-06,  avg # of iterations =  2.8

     total cpu time spent up to now is        0.8 secs

     total energy              =     -37.87915103 Ry
     estimated scf accuracy    <       0.00016471 Ry

     iteration #  5     ecut=    20.00 Ry     beta= 0.70
     Davidson diagonalization with overlap
     ethr =  2.06E-06,  avg # of iterations =  2.2

     total cpu time spent up to now is        0.9 secs

     total energy              =     -37.87916761 Ry
     estimated scf accuracy    <       0.00000448 Ry

     iteration #  6     ecut=    20.00 Ry     beta= 0.70
     Davidson diagonalization with overlap
     ethr =  5.61E-08,  avg # of iterations =  3.7

     total cpu time spent up to now is        1.0 secs

     total energy              =     -37.87917004 Ry
     estimated scf accuracy    <       0.00000022 Ry

     iteration #  7     ecut=    20.00 Ry     beta= 0.70
     Davidson diagonalization with overlap
     ethr =  2.71E-09,  avg # of iterations =  2.7

     total cpu time spent up to now is        1.1 secs

     total energy              =     -37.87917013 Ry
     estimated scf accuracy    <       0.00000002 Ry

     iteration #  8     ecut=    20.00 Ry     beta= 0.70
     Davidson diagonalization with overlap
     ethr =  2.02E-10,  avg # of iterations =  3.8

     total cpu time spent up to now is        1.2 secs

     End of self-consistent calculation

          k = 0.0000 0.0000 0.0000 (    57 PWs)   bands (ev):

    -4.4436  11.5813  11.5813  24.6214

          k = 0.0000 0.1283 0.0000 (    57 PWs)   bands (ev):

    -4.1701  10.4417  11.1150  24.3726

          k = 0.0000 0.2566 0.0000 (    56 PWs)   bands (ev):

    -3.3699   7.8887  10.1324  23.7700

          k = 0.0000 0.3849 0.0000 (    58 PWs)   bands (ev):

    -2.0595   5.2068   9.1917  23.1921

          k = 0.0000 0.5132 0.0000 (    58 PWs)   bands (ev):

    -0.3989   2.6713   8.6625  22.8440

          k = 0.1111 0.1925 0.0000 (    61 PWs)   bands (ev):

    -3.6425   8.7792  10.1415  25.1681

          k = 0.1111 0.3208 0.0000 (    56 PWs)   bands (ev):

    -2.5786   6.4982   8.9437  24.7369

          k = 0.1111 0.4491 0.0000 (    55 PWs)   bands (ev):

    -1.0530   3.9181   8.1489  24.2579

          k = 0.1111 0.5774 0.0000 (    52 PWs)   bands (ev):

     0.2874   2.1820   7.9020  24.1174

          k = 0.2222 0.3849 0.0000 (    53 PWs)   bands (ev):

    -1.2928   4.7976   7.3213  26.9802

          k = 0.2222 0.5132 0.0000 (    52 PWs)   bands (ev):

     0.3366   2.8988   6.4398  27.1182

          k = 0.3333 0.5774 0.0000 (    51 PWs)   bands (ev):

     1.8052   1.8052   5.6202  30.1077

     highest occupied level (ev):    30.1077

!    total energy              =     -37.87917015 Ry
     total all-electron energy =      -153.407366 Ry
     estimated scf accuracy    <          2.5E-09 Ry

     The total energy is the sum of the following terms:
     one-electron contribution =      13.49822557 Ry
     hartree contribution      =       2.05266393 Ry
     xc contribution           =     -10.96141923 Ry
     ewald contribution        =     -29.80824460 Ry
     one-center paw contrib.   =     -12.66039583 Ry

     convergence has been achieved in   8 iterations

     Writing all to output data dir ./graphene.save/

     init_run     :      0.29s CPU      0.30s WALL (       1 calls)
     electrons    :      0.52s CPU      0.79s WALL (       1 calls)

     Called by init_run:
     wfcinit      :      0.01s CPU      0.02s WALL (       1 calls)
     potinit      :      0.07s CPU      0.08s WALL (       1 calls)
     hinit0       :      0.20s CPU      0.20s WALL (       1 calls)

     Called by electrons:
     c_bands      :      0.06s CPU      0.25s WALL (       8 calls)
     sum_band     :      0.01s CPU      0.02s WALL (       8 calls)
     v_of_rho     :      0.01s CPU      0.02s WALL (       9 calls)
     newd         :      0.01s CPU      0.01s WALL (       9 calls)
     PAW_pot      :      0.46s CPU      0.48s WALL (       9 calls)
     mix_rho      :      0.01s CPU      0.00s WALL (       8 calls)

     Called by c_bands:
     init_us_2    :      0.00s CPU      0.00s WALL (     204 calls)
     init_us_2:cp :      0.00s CPU      0.00s WALL (     204 calls)
     cegterg      :      0.04s CPU      0.05s WALL (      96 calls)

     Called by *egterg:
     cdiaghg      :      0.01s CPU      0.01s WALL (     362 calls)
     h_psi        :      0.03s CPU      0.03s WALL (     374 calls)
     s_psi        :      0.00s CPU      0.00s WALL (     374 calls)
     g_psi        :      0.00s CPU      0.00s WALL (     266 calls)

     Called by h_psi:
     h_psi:calbec :      0.00s CPU      0.00s WALL (     374 calls)
     vloc_psi     :      0.02s CPU      0.03s WALL (     374 calls)
     add_vuspsi   :      0.00s CPU      0.00s WALL (     374 calls)

     General routines
     calbec       :      0.00s CPU      0.00s WALL (     470 calls)
     fft          :      0.12s CPU      0.12s WALL (     115 calls)
     ffts         :      0.02s CPU      0.02s WALL (      17 calls)
     fftw         :      0.02s CPU      0.02s WALL (    2772 calls)
     interpolate  :      0.02s CPU      0.02s WALL (       9 calls)


     PWSCF        :      0.99s CPU      1.82s WALL


   This run was terminated on:  10:56:38  20Mar2025            

=------------------------------------------------------------------------------=
   JOB DONE.
=------------------------------------------------------------------------------=
