
     Program PWSCF v.7.2 starts on 20Mar2025 at 10:56:40 

     This program is part of the open-source Quantum ESPRESSO suite
     for quantum simulation of materials; please cite
         "P. Giannozzi et al., J. Phys.:Condens. Matter 21 395502 (2009);
         "P. Giannozzi et al., J. Phys.:Condens. Matter 29 465901 (2017);
         "P. Giannozzi et al., J. Chem. Phys. 152 154105 (2020);
          URL http://www.quantum-espresso.org", 
     in publications or presentations arising from this work. More details at
     http://www.quantum-espresso.org/quote

     Serial version
     2199 MiB available memory on the printing compute node when the environment starts

     Waiting for input...
     Reading input from standard input

     Current dimensions of program PWSCF are:
     Max number of different atomic species (ntypx) = 10
     Max number of k-points (npk) =  40000
     Max angular momentum in pseudopotentials (lmaxx) =  4
     file C.pbe-n-kjpaw_psl.1.0.0.UPF: wavefunction(s)  2S 2P renormalized


     G-vector sticks info
     --------------------
     sticks:   dense  smooth     PW     G-vecs:    dense   smooth      PW
     Sum         301     121     37                 1929      475      99

     Using Slab Decomposition



     bravais-lattice index     =            4
     lattice parameter (alat)  =       4.6540  a.u.
     unit-cell volume          =      40.1576 (a.u.)^3
     number of atoms/cell      =            2
     number of atomic types    =            1
     number of electrons       =         8.00
     number of Kohn-Sham states=            4
     kinetic-energy cutoff     =      20.0000  Ry
     charge density cutoff     =     200.0000  Ry
     scf convergence threshold =      1.0E-08
     mixing beta               =       0.7000
     number of iterations used =            8  plain     mixing
     Exchange-correlation= SLA  PW   PBX  PBC
                           (   1   4   3   4   0   0   0)

     celldm(1)=   4.654000  celldm(2)=   0.000000  celldm(3)=   0.460000
     celldm(4)=   0.000000  celldm(5)=   0.000000  celldm(6)=   0.000000

     crystal axes: (cart. coord. in units of alat)
               a(1) = (   1.000000   0.000000   0.000000 )  
               a(2) = (  -0.500000   0.866025   0.000000 )  
               a(3) = (   0.000000   0.000000   0.460000 )  

     reciprocal axes: (cart. coord. in units 2 pi/alat)
               b(1) = (  1.000000  0.577350 -0.000000 )  
               b(2) = (  0.000000  1.154701  0.000000 )  
               b(3) = (  0.000000 -0.000000  2.173913 )  


     PseudoPot. # 1 for C  read from file:
     /root/Desktop/pseudo/C.pbe-n-kjpaw_psl.1.0.0.UPF
     MD5 check sum: 5d2aebdfa2cae82b50a7e79e9516da0f
     Pseudo is Projector augmented-wave + core cor, Zval =  4.0
     Generated using "atomic" code by A. Dal Corso  v.5.1
     Shape of augmentation charge: PSQ
     Using radial grid of 1073 points,  4 beta functions with: 
                l(1) =   0
                l(2) =   0
                l(3) =   1
                l(4) =   1
     Q(r) pseudized with 0 coefficients 


     atomic species   valence    mass     pseudopotential
        C              4.00    12.01070     C ( 1.00)

     24 Sym. Ops., with inversion, found (12 have fractional translation)



   Cartesian axes

     site n.     atom                  positions (alat units)
         1           C   tau(   1) = (   0.0000000   0.0000000   0.0000000  )
         2           C   tau(   2) = (   0.0000000   0.5773503   0.0000000  )

     number of k points=    12
                       cart. coord. in units 2pi/alat
        k(    1) = (   0.0000000   0.0000000   0.0000000), wk =   0.0246914
        k(    2) = (   0.0000000   0.1283001   0.0000000), wk =   0.1481481
        k(    3) = (   0.0000000   0.2566001   0.0000000), wk =   0.1481481
        k(    4) = (   0.0000000   0.3849002   0.0000000), wk =   0.1481481
        k(    5) = (   0.0000000   0.5132002   0.0000000), wk =   0.1481481
        k(    6) = (   0.1111111   0.1924501   0.0000000), wk =   0.1481481
        k(    7) = (   0.1111111   0.3207501   0.0000000), wk =   0.2962963
        k(    8) = (   0.1111111   0.4490502   0.0000000), wk =   0.2962963
        k(    9) = (   0.1111111   0.5773503   0.0000000), wk =   0.1481481
        k(   10) = (   0.2222222   0.3849002   0.0000000), wk =   0.1481481
        k(   11) = (   0.2222222   0.5132002   0.0000000), wk =   0.2962963
        k(   12) = (   0.3333333   0.5773503   0.0000000), wk =   0.0493827

     Dense  grid:     1929 G-vectors     FFT dimensions: (  24,  24,   9)

     Smooth grid:      475 G-vectors     FFT dimensions: (  15,  15,   8)

     Estimated max dynamical RAM per process >       2.86 MB

     Check: negative core charge=   -0.000075

     Initial potential from superposition of free atoms

     starting charge       7.9999, renormalised to       8.0000
     Starting wfcs are    8 randomized atomic wfcs

     total cpu time spent up to now is        0.5 secs

     Self-consistent Calculation

     iteration #  1     ecut=    20.00 Ry     beta= 0.70
     Davidson diagonalization with overlap
     ethr =  1.00E-02,  avg # of iterations =  2.0

     total cpu time spent up to now is        0.6 secs

     total energy              =     -38.05365084 Ry
     estimated scf accuracy    <       0.09405162 Ry

     iteration #  2     ecut=    20.00 Ry     beta= 0.70
     Davidson diagonalization with overlap
     ethr =  1.18E-03,  avg # of iterations =  2.2

     total cpu time spent up to now is        0.7 secs

     total energy              =     -38.06745558 Ry
     estimated scf accuracy    <       0.00161572 Ry

     iteration #  3     ecut=    20.00 Ry     beta= 0.70
     Davidson diagonalization with overlap
     ethr =  2.02E-05,  avg # of iterations =  2.7

     total cpu time spent up to now is        0.8 secs

     total energy              =     -38.06816694 Ry
     estimated scf accuracy    <       0.00023543 Ry

     iteration #  4     ecut=    20.00 Ry     beta= 0.70
     Davidson diagonalization with overlap
     ethr =  2.94E-06,  avg # of iterations =  2.8

     total cpu time spent up to now is        0.9 secs

     total energy              =     -38.06821258 Ry
     estimated scf accuracy    <       0.00004380 Ry

     iteration #  5     ecut=    20.00 Ry     beta= 0.70
     Davidson diagonalization with overlap
     ethr =  5.48E-07,  avg # of iterations =  2.2

     total cpu time spent up to now is        1.0 secs

     total energy              =     -38.06821712 Ry
     estimated scf accuracy    <       0.00000112 Ry

     iteration #  6     ecut=    20.00 Ry     beta= 0.70
     Davidson diagonalization with overlap
     ethr =  1.40E-08,  avg # of iterations =  3.8

     total cpu time spent up to now is        1.2 secs

     total energy              =     -38.06821797 Ry
     estimated scf accuracy    <       0.00000034 Ry

     iteration #  7     ecut=    20.00 Ry     beta= 0.70
     Davidson diagonalization with overlap
     ethr =  4.29E-09,  avg # of iterations =  1.3

     total cpu time spent up to now is        1.5 secs

     total energy              =     -38.06821793 Ry
     estimated scf accuracy    <       0.00000006 Ry

     iteration #  8     ecut=    20.00 Ry     beta= 0.70
     Davidson diagonalization with overlap
     ethr =  8.00E-10,  avg # of iterations =  3.2

     total cpu time spent up to now is        1.8 secs

     End of self-consistent calculation

          k = 0.0000 0.0000 0.0000 (    69 PWs)   bands (ev):

    -5.6315  12.1346  12.1346  23.0994

          k = 0.0000 0.1283 0.0000 (    69 PWs)   bands (ev):

    -5.3406  10.7449  11.6234  23.5393

          k = 0.0000 0.2566 0.0000 (    68 PWs)   bands (ev):

    -4.4809   7.8884  10.5661  22.8534

          k = 0.0000 0.3849 0.0000 (    62 PWs)   bands (ev):

    -3.0777   4.8567   9.7145  22.1426

          k = 0.0000 0.5132 0.0000 (    62 PWs)   bands (ev):

    -1.3207   2.1181   9.1566  21.7145

          k = 0.1111 0.1925 0.0000 (    67 PWs)   bands (ev):

    -4.7688   8.9508  10.6032  24.3938

          k = 0.1111 0.3208 0.0000 (    64 PWs)   bands (ev):

    -3.6314   6.2881   9.2759  23.9444

          k = 0.1111 0.4491 0.0000 (    63 PWs)   bands (ev):

    -2.0050   3.4400   8.4110  23.3623

          k = 0.1111 0.5774 0.0000 (    60 PWs)   bands (ev):

    -0.6022   1.5888   8.1646  23.1998

          k = 0.2222 0.3849 0.0000 (    63 PWs)   bands (ev):

    -2.2554   4.3893   7.4282  26.5817

          k = 0.2222 0.5132 0.0000 (    62 PWs)   bands (ev):

    -0.5167   2.2941   6.4539  26.6389

          k = 0.3333 0.5774 0.0000 (    63 PWs)   bands (ev):

     1.0641   1.0641   5.5130  30.0339

     highest occupied level (ev):    30.0339

!    total energy              =     -38.06821796 Ry
     total all-electron energy =      -153.596414 Ry
     estimated scf accuracy    <          6.2E-09 Ry

     The total energy is the sum of the following terms:
     one-electron contribution =      13.48751954 Ry
     hartree contribution      =       1.61333824 Ry
     xc contribution           =     -10.51195023 Ry
     ewald contribution        =     -30.07706874 Ry
     one-center paw contrib.   =     -12.58005677 Ry

     convergence has been achieved in   8 iterations

     Writing all to output data dir ./graphene.save/

     init_run     :      0.31s CPU      0.31s WALL (       1 calls)
     electrons    :      2.12s CPU      1.46s WALL (       1 calls)

     Called by init_run:
     wfcinit      :      0.06s CPU      0.01s WALL (       1 calls)
     potinit      :      0.05s CPU      0.09s WALL (       1 calls)
     hinit0       :      0.19s CPU      0.19s WALL (       1 calls)

     Called by electrons:
     c_bands      :      0.34s CPU      0.28s WALL (       8 calls)
     sum_band     :      0.04s CPU      0.03s WALL (       8 calls)
     v_of_rho     :      0.04s CPU      0.02s WALL (       9 calls)
     newd         :      0.16s CPU      0.28s WALL (       9 calls)
     PAW_pot      :      1.35s CPU      0.77s WALL (       9 calls)
     mix_rho      :      0.00s CPU      0.00s WALL (       8 calls)

     Called by c_bands:
     init_us_2    :      0.01s CPU      0.01s WALL (     204 calls)
     init_us_2:cp :      0.01s CPU      0.01s WALL (     204 calls)
     cegterg      :      0.08s CPU      0.06s WALL (      96 calls)

     Called by *egterg:
     cdiaghg      :      0.02s CPU      0.01s WALL (     339 calls)
     h_psi        :      0.11s CPU      0.05s WALL (     351 calls)
     s_psi        :      0.00s CPU      0.00s WALL (     351 calls)
     g_psi        :      0.00s CPU      0.00s WALL (     243 calls)

     Called by h_psi:
     h_psi:calbec :      0.01s CPU      0.00s WALL (     351 calls)
     vloc_psi     :      0.09s CPU      0.04s WALL (     351 calls)
     add_vuspsi   :      0.01s CPU      0.00s WALL (     351 calls)

     General routines
     calbec       :      0.01s CPU      0.00s WALL (     447 calls)
     fft          :      0.12s CPU      0.12s WALL (     115 calls)
     ffts         :      0.02s CPU      0.02s WALL (      17 calls)
     fftw         :      0.08s CPU      0.03s WALL (    2688 calls)
     interpolate  :      0.02s CPU      0.02s WALL (       9 calls)


     PWSCF        :      2.60s CPU      2.53s WALL


   This run was terminated on:  10:56:43  20Mar2025            

=------------------------------------------------------------------------------=
   JOB DONE.
=------------------------------------------------------------------------------=
