
     Program PWSCF v.7.2 starts on 20Mar2025 at 10:56:38 

     This program is part of the open-source Quantum ESPRESSO suite
     for quantum simulation of materials; please cite
         "P. Giannozzi et al., J. Phys.:Condens. Matter 21 395502 (2009);
         "P. Giannozzi et al., J. Phys.:Condens. Matter 29 465901 (2017);
         "P. Giannozzi et al., J. Chem. Phys. 152 154105 (2020);
          URL http://www.quantum-espresso.org", 
     in publications or presentations arising from this work. More details at
     http://www.quantum-espresso.org/quote

     Serial version
     2196 MiB available memory on the printing compute node when the environment starts

     Waiting for input...
     Reading input from standard input

     Current dimensions of program PWSCF are:
     Max number of different atomic species (ntypx) = 10
     Max number of k-points (npk) =  40000
     Max angular momentum in pseudopotentials (lmaxx) =  4
     file C.pbe-n-kjpaw_psl.1.0.0.UPF: wavefunction(s)  2S 2P renormalized


     G-vector sticks info
     --------------------
     sticks:   dense  smooth     PW     G-vecs:    dense   smooth      PW
     Sum         301     121     37                 1797      461      99

     Using Slab Decomposition



     bravais-lattice index     =            4
     lattice parameter (alat)  =       4.6540  a.u.
     unit-cell volume          =      37.5386 (a.u.)^3
     number of atoms/cell      =            2
     number of atomic types    =            1
     number of electrons       =         8.00
     number of Kohn-Sham states=            4
     kinetic-energy cutoff     =      20.0000  Ry
     charge density cutoff     =     200.0000  Ry
     scf convergence threshold =      1.0E-08
     mixing beta               =       0.7000
     number of iterations used =            8  plain     mixing
     Exchange-correlation= SLA  PW   PBX  PBC
                           (   1   4   3   4   0   0   0)

     celldm(1)=   4.654000  celldm(2)=   0.000000  celldm(3)=   0.430000
     celldm(4)=   0.000000  celldm(5)=   0.000000  celldm(6)=   0.000000

     crystal axes: (cart. coord. in units of alat)
               a(1) = (   1.000000   0.000000   0.000000 )  
               a(2) = (  -0.500000   0.866025   0.000000 )  
               a(3) = (   0.000000   0.000000   0.430000 )  

     reciprocal axes: (cart. coord. in units 2 pi/alat)
               b(1) = (  1.000000  0.577350 -0.000000 )  
               b(2) = (  0.000000  1.154701  0.000000 )  
               b(3) = (  0.000000 -0.000000  2.325581 )  


     PseudoPot. # 1 for C  read from file:
     /root/Desktop/pseudo/C.pbe-n-kjpaw_psl.1.0.0.UPF
     MD5 check sum: 5d2aebdfa2cae82b50a7e79e9516da0f
     Pseudo is Projector augmented-wave + core cor, Zval =  4.0
     Generated using "atomic" code by A. Dal Corso  v.5.1
     Shape of augmentation charge: PSQ
     Using radial grid of 1073 points,  4 beta functions with: 
                l(1) =   0
                l(2) =   0
                l(3) =   1
                l(4) =   1
     Q(r) pseudized with 0 coefficients 


     atomic species   valence    mass     pseudopotential
        C              4.00    12.01070     C ( 1.00)

     24 Sym. Ops., with inversion, found (12 have fractional translation)



   Cartesian axes

     site n.     atom                  positions (alat units)
         1           C   tau(   1) = (   0.0000000   0.0000000   0.0000000  )
         2           C   tau(   2) = (   0.0000000   0.5773503   0.0000000  )

     number of k points=    12
                       cart. coord. in units 2pi/alat
        k(    1) = (   0.0000000   0.0000000   0.0000000), wk =   0.0246914
        k(    2) = (   0.0000000   0.1283001   0.0000000), wk =   0.1481481
        k(    3) = (   0.0000000   0.2566001   0.0000000), wk =   0.1481481
        k(    4) = (   0.0000000   0.3849002   0.0000000), wk =   0.1481481
        k(    5) = (   0.0000000   0.5132002   0.0000000), wk =   0.1481481
        k(    6) = (   0.1111111   0.1924501   0.0000000), wk =   0.1481481
        k(    7) = (   0.1111111   0.3207501   0.0000000), wk =   0.2962963
        k(    8) = (   0.1111111   0.4490502   0.0000000), wk =   0.2962963
        k(    9) = (   0.1111111   0.5773503   0.0000000), wk =   0.1481481
        k(   10) = (   0.2222222   0.3849002   0.0000000), wk =   0.1481481
        k(   11) = (   0.2222222   0.5132002   0.0000000), wk =   0.2962963
        k(   12) = (   0.3333333   0.5773503   0.0000000), wk =   0.0493827

     Dense  grid:     1797 G-vectors     FFT dimensions: (  24,  24,   9)

     Smooth grid:      461 G-vectors     FFT dimensions: (  15,  15,   5)

     Estimated max dynamical RAM per process >       2.71 MB

     Check: negative core charge=   -0.000080

     Initial potential from superposition of free atoms

     starting charge       7.9999, renormalised to       8.0000
     Starting wfcs are    8 randomized atomic wfcs

     total cpu time spent up to now is        0.7 secs

     Self-consistent Calculation

     iteration #  1     ecut=    20.00 Ry     beta= 0.70
     Davidson diagonalization with overlap
     ethr =  1.00E-02,  avg # of iterations =  2.0

     total cpu time spent up to now is        0.9 secs

     total energy              =     -38.02798903 Ry
     estimated scf accuracy    <       0.13889453 Ry

     iteration #  2     ecut=    20.00 Ry     beta= 0.70
     Davidson diagonalization with overlap
     ethr =  1.74E-03,  avg # of iterations =  2.5

     total cpu time spent up to now is        1.0 secs

     total energy              =     -38.05040290 Ry
     estimated scf accuracy    <       0.00261113 Ry

     iteration #  3     ecut=    20.00 Ry     beta= 0.70
     Davidson diagonalization with overlap
     ethr =  3.26E-05,  avg # of iterations =  2.4

     total cpu time spent up to now is        1.1 secs

     total energy              =     -38.05091573 Ry
     estimated scf accuracy    <       0.00026358 Ry

     iteration #  4     ecut=    20.00 Ry     beta= 0.70
     Davidson diagonalization with overlap
     ethr =  3.29E-06,  avg # of iterations =  2.6

     total cpu time spent up to now is        1.2 secs

     total energy              =     -38.05098032 Ry
     estimated scf accuracy    <       0.00004019 Ry

     iteration #  5     ecut=    20.00 Ry     beta= 0.70
     Davidson diagonalization with overlap
     ethr =  5.02E-07,  avg # of iterations =  2.8

     total cpu time spent up to now is        1.3 secs

     total energy              =     -38.05098578 Ry
     estimated scf accuracy    <       0.00000160 Ry

     iteration #  6     ecut=    20.00 Ry     beta= 0.70
     Davidson diagonalization with overlap
     ethr =  2.00E-08,  avg # of iterations =  3.8

     total cpu time spent up to now is        1.3 secs

     total energy              =     -38.05098698 Ry
     estimated scf accuracy    <       0.00000038 Ry

     iteration #  7     ecut=    20.00 Ry     beta= 0.70
     Davidson diagonalization with overlap
     ethr =  4.74E-09,  avg # of iterations =  1.6

     total cpu time spent up to now is        1.4 secs

     total energy              =     -38.05098698 Ry
     estimated scf accuracy    <       0.00000004 Ry

     iteration #  8     ecut=    20.00 Ry     beta= 0.70
     Davidson diagonalization with overlap
     ethr =  5.07E-10,  avg # of iterations =  3.5

     total cpu time spent up to now is        1.5 secs

     End of self-consistent calculation

          k = 0.0000 0.0000 0.0000 (    69 PWs)   bands (ev):

    -5.1157  11.8734  11.8734  23.6575

          k = 0.0000 0.1283 0.0000 (    63 PWs)   bands (ev):

    -4.8320  10.7062  11.4834  23.9440

          k = 0.0000 0.2566 0.0000 (    64 PWs)   bands (ev):

    -3.9972   7.9286  10.4552  23.2472

          k = 0.0000 0.3849 0.0000 (    62 PWs)   bands (ev):

    -2.6319   5.0240   9.5192  22.5895

          k = 0.0000 0.5132 0.0000 (    58 PWs)   bands (ev):

    -0.9146   2.3899   8.9764  22.2579

          k = 0.1111 0.1925 0.0000 (    67 PWs)   bands (ev):

    -4.2774   8.9032  10.4094  24.7042

          k = 0.1111 0.3208 0.0000 (    62 PWs)   bands (ev):

    -3.1710   6.4004   9.1814  24.3005

          k = 0.1111 0.4491 0.0000 (    59 PWs)   bands (ev):

    -1.5854   3.6682   8.3517  23.7866

          k = 0.1111 0.5774 0.0000 (    56 PWs)   bands (ev):

    -0.2159   1.8836   8.0713  23.6518

          k = 0.2222 0.3849 0.0000 (    61 PWs)   bands (ev):

    -1.8305   4.5779   7.4090  26.7261

          k = 0.2222 0.5132 0.0000 (    56 PWs)   bands (ev):

    -0.1395   2.5815   6.5006  26.9447

          k = 0.3333 0.5774 0.0000 (    51 PWs)   bands (ev):

     1.3986   1.3986   5.6721  30.2351

     highest occupied level (ev):    30.2351

!    total energy              =     -38.05098699 Ry
     total all-electron energy =      -153.579183 Ry
     estimated scf accuracy    <          1.4E-10 Ry

     The total energy is the sum of the following terms:
     one-electron contribution =      13.50957558 Ry
     hartree contribution      =       1.81780067 Ry
     xc contribution           =     -10.72445116 Ry
     ewald contribution        =     -30.03278119 Ry
     one-center paw contrib.   =     -12.62113088 Ry

     convergence has been achieved in   8 iterations

     Writing all to output data dir ./graphene.save/

     init_run     :      0.37s CPU      0.41s WALL (       1 calls)
     electrons    :      0.55s CPU      0.92s WALL (       1 calls)

     Called by init_run:
     wfcinit      :      0.02s CPU      0.04s WALL (       1 calls)
     potinit      :      0.16s CPU      0.16s WALL (       1 calls)
     hinit0       :      0.20s CPU      0.20s WALL (       1 calls)

     Called by electrons:
     c_bands      :      0.04s CPU      0.30s WALL (       8 calls)
     sum_band     :      0.01s CPU      0.02s WALL (       8 calls)
     v_of_rho     :      0.01s CPU      0.02s WALL (       9 calls)
     newd         :      0.01s CPU      0.02s WALL (       9 calls)
     PAW_pot      :      0.59s CPU      0.61s WALL (       9 calls)
     mix_rho      :      0.00s CPU      0.00s WALL (       8 calls)

     Called by c_bands:
     init_us_2    :      0.00s CPU      0.01s WALL (     204 calls)
     init_us_2:cp :      0.00s CPU      0.00s WALL (     204 calls)
     cegterg      :      0.03s CPU      0.05s WALL (      96 calls)

     Called by *egterg:
     cdiaghg      :      0.02s CPU      0.02s WALL (     349 calls)
     h_psi        :      0.02s CPU      0.04s WALL (     361 calls)
     s_psi        :      0.00s CPU      0.00s WALL (     361 calls)
     g_psi        :      0.00s CPU      0.00s WALL (     253 calls)

     Called by h_psi:
     h_psi:calbec :      0.00s CPU      0.00s WALL (     361 calls)
     vloc_psi     :      0.02s CPU      0.03s WALL (     361 calls)
     add_vuspsi   :      0.00s CPU      0.00s WALL (     361 calls)

     General routines
     calbec       :      0.00s CPU      0.00s WALL (     457 calls)
     fft          :      0.12s CPU      0.12s WALL (     115 calls)
     ffts         :      0.04s CPU      0.04s WALL (      17 calls)
     fftw         :      0.02s CPU      0.03s WALL (    2652 calls)
     interpolate  :      0.04s CPU      0.04s WALL (       9 calls)


     PWSCF        :      1.12s CPU      2.03s WALL


   This run was terminated on:  10:56:40  20Mar2025            

=------------------------------------------------------------------------------=
   JOB DONE.
=------------------------------------------------------------------------------=
