
     Program PWSCF v.7.2 starts on 20Mar2025 at 10:57: 0 

     This program is part of the open-source Quantum ESPRESSO suite
     for quantum simulation of materials; please cite
         "P. Giannozzi et al., J. Phys.:Condens. Matter 21 395502 (2009);
         "P. Giannozzi et al., J. Phys.:Condens. Matter 29 465901 (2017);
         "P. Giannozzi et al., J. Chem. Phys. 152 154105 (2020);
          URL http://www.quantum-espresso.org", 
     in publications or presentations arising from this work. More details at
     http://www.quantum-espresso.org/quote

     Serial version
     2204 MiB available memory on the printing compute node when the environment starts

     Waiting for input...
     Reading input from standard input

     Current dimensions of program PWSCF are:
     Max number of different atomic species (ntypx) = 10
     Max number of k-points (npk) =  40000
     Max angular momentum in pseudopotentials (lmaxx) =  4
     file C.pbe-n-kjpaw_psl.1.0.0.UPF: wavefunction(s)  2S 2P renormalized


     G-vector sticks info
     --------------------
     sticks:   dense  smooth     PW     G-vecs:    dense   smooth      PW
     Sum         301     121     37                 2593      621     137

     Using Slab Decomposition



     bravais-lattice index     =            4
     lattice parameter (alat)  =       4.6540  a.u.
     unit-cell volume          =      53.2525 (a.u.)^3
     number of atoms/cell      =            2
     number of atomic types    =            1
     number of electrons       =         8.00
     number of Kohn-Sham states=            4
     kinetic-energy cutoff     =      20.0000  Ry
     charge density cutoff     =     200.0000  Ry
     scf convergence threshold =      1.0E-08
     mixing beta               =       0.7000
     number of iterations used =            8  plain     mixing
     Exchange-correlation= SLA  PW   PBX  PBC
                           (   1   4   3   4   0   0   0)

     celldm(1)=   4.654000  celldm(2)=   0.000000  celldm(3)=   0.610000
     celldm(4)=   0.000000  celldm(5)=   0.000000  celldm(6)=   0.000000

     crystal axes: (cart. coord. in units of alat)
               a(1) = (   1.000000   0.000000   0.000000 )  
               a(2) = (  -0.500000   0.866025   0.000000 )  
               a(3) = (   0.000000   0.000000   0.610000 )  

     reciprocal axes: (cart. coord. in units 2 pi/alat)
               b(1) = (  1.000000  0.577350 -0.000000 )  
               b(2) = (  0.000000  1.154701  0.000000 )  
               b(3) = (  0.000000 -0.000000  1.639344 )  


     PseudoPot. # 1 for C  read from file:
     /root/Desktop/pseudo/C.pbe-n-kjpaw_psl.1.0.0.UPF
     MD5 check sum: 5d2aebdfa2cae82b50a7e79e9516da0f
     Pseudo is Projector augmented-wave + core cor, Zval =  4.0
     Generated using "atomic" code by A. Dal Corso  v.5.1
     Shape of augmentation charge: PSQ
     Using radial grid of 1073 points,  4 beta functions with: 
                l(1) =   0
                l(2) =   0
                l(3) =   1
                l(4) =   1
     Q(r) pseudized with 0 coefficients 


     atomic species   valence    mass     pseudopotential
        C              4.00    12.01070     C ( 1.00)

     24 Sym. Ops., with inversion, found (12 have fractional translation)



   Cartesian axes

     site n.     atom                  positions (alat units)
         1           C   tau(   1) = (   0.0000000   0.0000000   0.0000000  )
         2           C   tau(   2) = (   0.0000000   0.5773503   0.0000000  )

     number of k points=    12
                       cart. coord. in units 2pi/alat
        k(    1) = (   0.0000000   0.0000000   0.0000000), wk =   0.0246914
        k(    2) = (   0.0000000   0.1283001   0.0000000), wk =   0.1481481
        k(    3) = (   0.0000000   0.2566001   0.0000000), wk =   0.1481481
        k(    4) = (   0.0000000   0.3849002   0.0000000), wk =   0.1481481
        k(    5) = (   0.0000000   0.5132002   0.0000000), wk =   0.1481481
        k(    6) = (   0.1111111   0.1924501   0.0000000), wk =   0.1481481
        k(    7) = (   0.1111111   0.3207501   0.0000000), wk =   0.2962963
        k(    8) = (   0.1111111   0.4490502   0.0000000), wk =   0.2962963
        k(    9) = (   0.1111111   0.5773503   0.0000000), wk =   0.1481481
        k(   10) = (   0.2222222   0.3849002   0.0000000), wk =   0.1481481
        k(   11) = (   0.2222222   0.5132002   0.0000000), wk =   0.2962963
        k(   12) = (   0.3333333   0.5773503   0.0000000), wk =   0.0493827

     Dense  grid:     2593 G-vectors     FFT dimensions: (  24,  24,  15)

     Smooth grid:      621 G-vectors     FFT dimensions: (  15,  15,   9)

     Estimated max dynamical RAM per process >       3.84 MB

     Check: negative core charge=   -0.000086

     Initial potential from superposition of free atoms

     starting charge       7.9999, renormalised to       8.0000
     Starting wfcs are    8 randomized atomic wfcs

     total cpu time spent up to now is        1.0 secs

     Self-consistent Calculation

     iteration #  1     ecut=    20.00 Ry     beta= 0.70
     Davidson diagonalization with overlap
     ethr =  1.00E-02,  avg # of iterations =  2.0

     Threshold (ethr) on eigenvalues was too large:
     Diagonalizing with lowered threshold

     Davidson diagonalization with overlap
     ethr =  3.03E-04,  avg # of iterations =  2.0

     total cpu time spent up to now is        2.5 secs

     total energy              =     -37.12739042 Ry
     estimated scf accuracy    <       0.02351142 Ry

     iteration #  2     ecut=    20.00 Ry     beta= 0.70
     Davidson diagonalization with overlap
     ethr =  2.94E-04,  avg # of iterations =  1.0

     total cpu time spent up to now is        3.0 secs

     total energy              =     -37.12810922 Ry
     estimated scf accuracy    <       0.00127506 Ry

     iteration #  3     ecut=    20.00 Ry     beta= 0.70
     Davidson diagonalization with overlap
     ethr =  1.59E-05,  avg # of iterations =  1.7

     total cpu time spent up to now is        3.3 secs

     total energy              =     -37.12824410 Ry
     estimated scf accuracy    <       0.00001585 Ry

     iteration #  4     ecut=    20.00 Ry     beta= 0.70
     Davidson diagonalization with overlap
     ethr =  1.98E-07,  avg # of iterations =  4.6

     total cpu time spent up to now is        3.5 secs

     total energy              =     -37.12826239 Ry
     estimated scf accuracy    <       0.00000009 Ry

     iteration #  5     ecut=    20.00 Ry     beta= 0.70
     Davidson diagonalization with overlap
     c_bands:  1 eigenvalues not converged
     ethr =  1.08E-09,  avg # of iterations =  5.2

     total cpu time spent up to now is        3.8 secs

     End of self-consistent calculation

          k = 0.0000 0.0000 0.0000 (    71 PWs)   bands (ev):

    -7.0941  12.1008  12.1008  22.4053

          k = 0.0000 0.1283 0.0000 (    71 PWs)   bands (ev):

    -6.7840  10.5218  11.5200  22.6276

          k = 0.0000 0.2566 0.0000 (    80 PWs)   bands (ev):

    -5.8706   7.1622  10.2181  21.5122

          k = 0.0000 0.3849 0.0000 (    78 PWs)   bands (ev):

    -4.3772   3.8872   9.1763  20.5804

          k = 0.0000 0.5132 0.0000 (    76 PWs)   bands (ev):

    -2.4815   0.9859   8.5925  20.0665

          k = 0.1111 0.1925 0.0000 (    77 PWs)   bands (ev):

    -6.1756   8.3485  10.2559  23.5904

          k = 0.1111 0.3208 0.0000 (    76 PWs)   bands (ev):

    -4.9659   5.4555   8.7223  22.6791

          k = 0.1111 0.4491 0.0000 (    77 PWs)   bands (ev):

    -3.2267   2.4263   7.7187  21.9279

          k = 0.1111 0.5774 0.0000 (    72 PWs)   bands (ev):

    -1.6911   0.4704   7.4051  21.6976

          k = 0.2222 0.3849 0.0000 (    77 PWs)   bands (ev):

    -3.4956   3.5124   6.5167  25.6528

          k = 0.2222 0.5132 0.0000 (    76 PWs)   bands (ev):

    -1.6237   1.2965   5.3651  25.4361

          k = 0.3333 0.5774 0.0000 (    69 PWs)   bands (ev):

     0.0967   0.0967   4.3413  29.3009

     highest occupied level (ev):    29.3009

!    total energy              =     -37.12826302 Ry
     total all-electron energy =      -152.656459 Ry
     estimated scf accuracy    <          3.6E-09 Ry

     The total energy is the sum of the following terms:
     one-electron contribution =      12.89739077 Ry
     hartree contribution      =       1.08340045 Ry
     xc contribution           =      -9.77065298 Ry
     ewald contribution        =     -28.88369025 Ry
     one-center paw contrib.   =     -12.45471102 Ry

     convergence has been achieved in   5 iterations

     Writing all to output data dir ./graphene.save/

     init_run     :      0.78s CPU      0.74s WALL (       1 calls)
     electrons    :      3.19s CPU      2.89s WALL (       1 calls)

     Called by init_run:
     wfcinit      :      0.19s CPU      0.12s WALL (       1 calls)
     potinit      :      0.18s CPU      0.21s WALL (       1 calls)
     hinit0       :      0.39s CPU      0.41s WALL (       1 calls)

     Called by electrons:
     c_bands      :      0.50s CPU      0.54s WALL (       6 calls)
     sum_band     :      0.11s CPU      0.06s WALL (       6 calls)
     v_of_rho     :      0.12s CPU      0.07s WALL (       6 calls)
     newd         :      0.75s CPU      1.03s WALL (       6 calls)
     PAW_pot      :      1.63s CPU      1.11s WALL (       6 calls)
     mix_rho      :      0.00s CPU      0.00s WALL (       6 calls)

     Called by c_bands:
     init_us_2    :      0.01s CPU      0.01s WALL (     156 calls)
     init_us_2:cp :      0.01s CPU      0.01s WALL (     156 calls)
     cegterg      :      0.23s CPU      0.14s WALL (      72 calls)

     Called by *egterg:
     cdiaghg      :      0.05s CPU      0.03s WALL (     258 calls)
     h_psi        :      0.25s CPU      0.13s WALL (     282 calls)
     s_psi        :      0.01s CPU      0.00s WALL (     282 calls)
     g_psi        :      0.00s CPU      0.00s WALL (     198 calls)

     Called by h_psi:
     h_psi:calbec :      0.01s CPU      0.01s WALL (     282 calls)
     vloc_psi     :      0.22s CPU      0.11s WALL (     282 calls)
     add_vuspsi   :      0.02s CPU      0.00s WALL (     282 calls)

     General routines
     calbec       :      0.01s CPU      0.01s WALL (     354 calls)
     fft          :      0.22s CPU      0.20s WALL (      77 calls)
     ffts         :      0.06s CPU      0.07s WALL (      12 calls)
     fftw         :      0.19s CPU      0.08s WALL (    2048 calls)
     interpolate  :      0.06s CPU      0.07s WALL (       6 calls)


     PWSCF        :      4.39s CPU      4.37s WALL


   This run was terminated on:  10:57: 4  20Mar2025            

=------------------------------------------------------------------------------=
   JOB DONE.
=------------------------------------------------------------------------------=
