
     Program PWSCF v.7.2 starts on 20Mar2025 at 10:57: 5 

     This program is part of the open-source Quantum ESPRESSO suite
     for quantum simulation of materials; please cite
         "P. Giannozzi et al., J. Phys.:Condens. Matter 21 395502 (2009);
         "P. Giannozzi et al., J. Phys.:Condens. Matter 29 465901 (2017);
         "P. Giannozzi et al., J. Chem. Phys. 152 154105 (2020);
          URL http://www.quantum-espresso.org", 
     in publications or presentations arising from this work. More details at
     http://www.quantum-espresso.org/quote

     Serial version
     2208 MiB available memory on the printing compute node when the environment starts

     Waiting for input...
     Reading input from standard input

     Current dimensions of program PWSCF are:
     Max number of different atomic species (ntypx) = 10
     Max number of k-points (npk) =  40000
     Max angular momentum in pseudopotentials (lmaxx) =  4
     file C.pbe-n-kjpaw_psl.1.0.0.UPF: wavefunction(s)  2S 2P renormalized


     G-vector sticks info
     --------------------
     sticks:   dense  smooth     PW     G-vecs:    dense   smooth      PW
     Sum         301     121     37                 2677      693     149

     Using Slab Decomposition



     bravais-lattice index     =            4
     lattice parameter (alat)  =       4.6540  a.u.
     unit-cell volume          =      55.8714 (a.u.)^3
     number of atoms/cell      =            2
     number of atomic types    =            1
     number of electrons       =         8.00
     number of Kohn-Sham states=            4
     kinetic-energy cutoff     =      20.0000  Ry
     charge density cutoff     =     200.0000  Ry
     scf convergence threshold =      1.0E-08
     mixing beta               =       0.7000
     number of iterations used =            8  plain     mixing
     Exchange-correlation= SLA  PW   PBX  PBC
                           (   1   4   3   4   0   0   0)

     celldm(1)=   4.654000  celldm(2)=   0.000000  celldm(3)=   0.640000
     celldm(4)=   0.000000  celldm(5)=   0.000000  celldm(6)=   0.000000

     crystal axes: (cart. coord. in units of alat)
               a(1) = (   1.000000   0.000000   0.000000 )  
               a(2) = (  -0.500000   0.866025   0.000000 )  
               a(3) = (   0.000000   0.000000   0.640000 )  

     reciprocal axes: (cart. coord. in units 2 pi/alat)
               b(1) = (  1.000000  0.577350 -0.000000 )  
               b(2) = (  0.000000  1.154701  0.000000 )  
               b(3) = (  0.000000 -0.000000  1.562500 )  


     PseudoPot. # 1 for C  read from file:
     /root/Desktop/pseudo/C.pbe-n-kjpaw_psl.1.0.0.UPF
     MD5 check sum: 5d2aebdfa2cae82b50a7e79e9516da0f
     Pseudo is Projector augmented-wave + core cor, Zval =  4.0
     Generated using "atomic" code by A. Dal Corso  v.5.1
     Shape of augmentation charge: PSQ
     Using radial grid of 1073 points,  4 beta functions with: 
                l(1) =   0
                l(2) =   0
                l(3) =   1
                l(4) =   1
     Q(r) pseudized with 0 coefficients 


     atomic species   valence    mass     pseudopotential
        C              4.00    12.01070     C ( 1.00)

     24 Sym. Ops., with inversion, found (12 have fractional translation)



   Cartesian axes

     site n.     atom                  positions (alat units)
         1           C   tau(   1) = (   0.0000000   0.0000000   0.0000000  )
         2           C   tau(   2) = (   0.0000000   0.5773503   0.0000000  )

     number of k points=    12
                       cart. coord. in units 2pi/alat
        k(    1) = (   0.0000000   0.0000000   0.0000000), wk =   0.0246914
        k(    2) = (   0.0000000   0.1283001   0.0000000), wk =   0.1481481
        k(    3) = (   0.0000000   0.2566001   0.0000000), wk =   0.1481481
        k(    4) = (   0.0000000   0.3849002   0.0000000), wk =   0.1481481
        k(    5) = (   0.0000000   0.5132002   0.0000000), wk =   0.1481481
        k(    6) = (   0.1111111   0.1924501   0.0000000), wk =   0.1481481
        k(    7) = (   0.1111111   0.3207501   0.0000000), wk =   0.2962963
        k(    8) = (   0.1111111   0.4490502   0.0000000), wk =   0.2962963
        k(    9) = (   0.1111111   0.5773503   0.0000000), wk =   0.1481481
        k(   10) = (   0.2222222   0.3849002   0.0000000), wk =   0.1481481
        k(   11) = (   0.2222222   0.5132002   0.0000000), wk =   0.2962963
        k(   12) = (   0.3333333   0.5773503   0.0000000), wk =   0.0493827

     Dense  grid:     2677 G-vectors     FFT dimensions: (  24,  24,  15)

     Smooth grid:      693 G-vectors     FFT dimensions: (  15,  15,   9)

     Estimated max dynamical RAM per process >       3.94 MB

     Check: negative core charge=   -0.000088

     Initial potential from superposition of free atoms

     starting charge       7.9999, renormalised to       8.0000
     Starting wfcs are    8 randomized atomic wfcs

     total cpu time spent up to now is        0.9 secs

     Self-consistent Calculation

     iteration #  1     ecut=    20.00 Ry     beta= 0.70
     Davidson diagonalization with overlap
     ethr =  1.00E-02,  avg # of iterations =  2.0

     Threshold (ethr) on eigenvalues was too large:
     Diagonalizing with lowered threshold

     Davidson diagonalization with overlap
     ethr =  3.28E-04,  avg # of iterations =  2.5

     total cpu time spent up to now is        1.5 secs

     total energy              =     -36.89638189 Ry
     estimated scf accuracy    <       0.02678775 Ry

     iteration #  2     ecut=    20.00 Ry     beta= 0.70
     Davidson diagonalization with overlap
     ethr =  3.35E-04,  avg # of iterations =  1.0

     total cpu time spent up to now is        1.8 secs

     total energy              =     -36.89719602 Ry
     estimated scf accuracy    <       0.00139710 Ry

     iteration #  3     ecut=    20.00 Ry     beta= 0.70
     Davidson diagonalization with overlap
     ethr =  1.75E-05,  avg # of iterations =  1.4

     total cpu time spent up to now is        2.0 secs

     total energy              =     -36.89729551 Ry
     estimated scf accuracy    <       0.00001550 Ry

     iteration #  4     ecut=    20.00 Ry     beta= 0.70
     Davidson diagonalization with overlap
     ethr =  1.94E-07,  avg # of iterations =  5.4

     total cpu time spent up to now is        2.3 secs

     total energy              =     -36.89731556 Ry
     estimated scf accuracy    <       0.00000036 Ry

     iteration #  5     ecut=    20.00 Ry     beta= 0.70
     Davidson diagonalization with overlap
     c_bands:  1 eigenvalues not converged
     ethr =  4.55E-09,  avg # of iterations =  4.3

     total cpu time spent up to now is        2.5 secs

     End of self-consistent calculation

          k = 0.0000 0.0000 0.0000 (    71 PWs)   bands (ev):

    -7.2957  11.9446  11.9446  22.4254

          k = 0.0000 0.1283 0.0000 (    77 PWs)   bands (ev):

    -6.9843  10.3634  11.3285  22.4548

          k = 0.0000 0.2566 0.0000 (    86 PWs)   bands (ev):

    -6.0661   6.9914  10.0005  21.2801

          k = 0.0000 0.3849 0.0000 (    84 PWs)   bands (ev):

    -4.5633   3.7079   8.9512  20.3330

          k = 0.0000 0.5132 0.0000 (    84 PWs)   bands (ev):

    -2.6472   0.7870   8.3649  19.8078

          k = 0.1111 0.1925 0.0000 (    85 PWs)   bands (ev):

    -6.3736   8.1216   9.9336  23.3793

          k = 0.1111 0.3208 0.0000 (    84 PWs)   bands (ev):

    -5.1576   5.2849   8.3515  22.4009

          k = 0.1111 0.4491 0.0000 (    83 PWs)   bands (ev):

    -3.4037   2.2472   7.3971  21.6546

          k = 0.1111 0.5774 0.0000 (    84 PWs)   bands (ev):

    -1.8508   0.1977   7.0789  21.4000

          k = 0.2222 0.3849 0.0000 (    81 PWs)   bands (ev):

    -3.6755   3.3611   6.2705  25.4304

          k = 0.2222 0.5132 0.0000 (    82 PWs)   bands (ev):

    -1.7851   1.1312   5.1051  25.1548

          k = 0.3333 0.5774 0.0000 (    87 PWs)   bands (ev):

    -0.1025  -0.1025   3.9041  28.8721

     highest occupied level (ev):    28.8721

!    total energy              =     -36.89731622 Ry
     total all-electron energy =      -152.425512 Ry
     estimated scf accuracy    <          8.3E-09 Ry

     The total energy is the sum of the following terms:
     one-electron contribution =      12.64544599 Ry
     hartree contribution      =       1.07570548 Ry
     xc contribution           =      -9.67763195 Ry
     ewald contribution        =     -28.49876007 Ry
     one-center paw contrib.   =     -12.44207568 Ry

     convergence has been achieved in   5 iterations

     Writing all to output data dir ./graphene.save/

     init_run     :      0.75s CPU      0.70s WALL (       1 calls)
     electrons    :      2.40s CPU      1.66s WALL (       1 calls)

     Called by init_run:
     wfcinit      :      0.09s CPU      0.04s WALL (       1 calls)
     potinit      :      0.12s CPU      0.13s WALL (       1 calls)
     hinit0       :      0.32s CPU      0.32s WALL (       1 calls)

     Called by electrons:
     c_bands      :      0.60s CPU      0.36s WALL (       6 calls)
     sum_band     :      0.13s CPU      0.13s WALL (       6 calls)
     v_of_rho     :      0.14s CPU      0.07s WALL (       6 calls)
     newd         :      0.41s CPU      0.50s WALL (       6 calls)
     PAW_pot      :      1.23s CPU      0.75s WALL (       6 calls)
     mix_rho      :      0.00s CPU      0.00s WALL (       6 calls)

     Called by c_bands:
     init_us_2    :      0.01s CPU      0.01s WALL (     156 calls)
     init_us_2:cp :      0.01s CPU      0.01s WALL (     156 calls)
     cegterg      :      0.19s CPU      0.11s WALL (      72 calls)

     Called by *egterg:
     cdiaghg      :      0.04s CPU      0.02s WALL (     260 calls)
     h_psi        :      0.18s CPU      0.10s WALL (     284 calls)
     s_psi        :      0.01s CPU      0.00s WALL (     284 calls)
     g_psi        :      0.00s CPU      0.00s WALL (     200 calls)

     Called by h_psi:
     h_psi:calbec :      0.03s CPU      0.01s WALL (     284 calls)
     vloc_psi     :      0.14s CPU      0.08s WALL (     284 calls)
     add_vuspsi   :      0.01s CPU      0.01s WALL (     284 calls)

     General routines
     calbec       :      0.02s CPU      0.01s WALL (     356 calls)
     fft          :      0.17s CPU      0.16s WALL (      77 calls)
     ffts         :      0.02s CPU      0.02s WALL (      12 calls)
     fftw         :      0.10s CPU      0.06s WALL (    2022 calls)
     interpolate  :      0.02s CPU      0.02s WALL (       6 calls)


     PWSCF        :      3.41s CPU      2.94s WALL


   This run was terminated on:  10:57: 8  20Mar2025            

=------------------------------------------------------------------------------=
   JOB DONE.
=------------------------------------------------------------------------------=
