
     Program PWSCF v.7.2 starts on 20Mar2025 at 10:56:47 

     This program is part of the open-source Quantum ESPRESSO suite
     for quantum simulation of materials; please cite
         "P. Giannozzi et al., J. Phys.:Condens. Matter 21 395502 (2009);
         "P. Giannozzi et al., J. Phys.:Condens. Matter 29 465901 (2017);
         "P. Giannozzi et al., J. Chem. Phys. 152 154105 (2020);
          URL http://www.quantum-espresso.org", 
     in publications or presentations arising from this work. More details at
     http://www.quantum-espresso.org/quote

     Serial version
     2208 MiB available memory on the printing compute node when the environment starts

     Waiting for input...
     Reading input from standard input

     Current dimensions of program PWSCF are:
     Max number of different atomic species (ntypx) = 10
     Max number of k-points (npk) =  40000
     Max angular momentum in pseudopotentials (lmaxx) =  4
     file C.pbe-n-kjpaw_psl.1.0.0.UPF: wavefunction(s)  2S 2P renormalized


     G-vector sticks info
     --------------------
     sticks:   dense  smooth     PW     G-vecs:    dense   smooth      PW
     Sum         301     121     37                 2183      571     113

     Using Slab Decomposition



     bravais-lattice index     =            4
     lattice parameter (alat)  =       4.6540  a.u.
     unit-cell volume          =      45.3955 (a.u.)^3
     number of atoms/cell      =            2
     number of atomic types    =            1
     number of electrons       =         8.00
     number of Kohn-Sham states=            4
     kinetic-energy cutoff     =      20.0000  Ry
     charge density cutoff     =     200.0000  Ry
     scf convergence threshold =      1.0E-08
     mixing beta               =       0.7000
     number of iterations used =            8  plain     mixing
     Exchange-correlation= SLA  PW   PBX  PBC
                           (   1   4   3   4   0   0   0)

     celldm(1)=   4.654000  celldm(2)=   0.000000  celldm(3)=   0.520000
     celldm(4)=   0.000000  celldm(5)=   0.000000  celldm(6)=   0.000000

     crystal axes: (cart. coord. in units of alat)
               a(1) = (   1.000000   0.000000   0.000000 )  
               a(2) = (  -0.500000   0.866025   0.000000 )  
               a(3) = (   0.000000   0.000000   0.520000 )  

     reciprocal axes: (cart. coord. in units 2 pi/alat)
               b(1) = (  1.000000  0.577350 -0.000000 )  
               b(2) = (  0.000000  1.154701  0.000000 )  
               b(3) = (  0.000000 -0.000000  1.923077 )  


     PseudoPot. # 1 for C  read from file:
     /root/Desktop/pseudo/C.pbe-n-kjpaw_psl.1.0.0.UPF
     MD5 check sum: 5d2aebdfa2cae82b50a7e79e9516da0f
     Pseudo is Projector augmented-wave + core cor, Zval =  4.0
     Generated using "atomic" code by A. Dal Corso  v.5.1
     Shape of augmentation charge: PSQ
     Using radial grid of 1073 points,  4 beta functions with: 
                l(1) =   0
                l(2) =   0
                l(3) =   1
                l(4) =   1
     Q(r) pseudized with 0 coefficients 


     atomic species   valence    mass     pseudopotential
        C              4.00    12.01070     C ( 1.00)

     24 Sym. Ops., with inversion, found (12 have fractional translation)



   Cartesian axes

     site n.     atom                  positions (alat units)
         1           C   tau(   1) = (   0.0000000   0.0000000   0.0000000  )
         2           C   tau(   2) = (   0.0000000   0.5773503   0.0000000  )

     number of k points=    12
                       cart. coord. in units 2pi/alat
        k(    1) = (   0.0000000   0.0000000   0.0000000), wk =   0.0246914
        k(    2) = (   0.0000000   0.1283001   0.0000000), wk =   0.1481481
        k(    3) = (   0.0000000   0.2566001   0.0000000), wk =   0.1481481
        k(    4) = (   0.0000000   0.3849002   0.0000000), wk =   0.1481481
        k(    5) = (   0.0000000   0.5132002   0.0000000), wk =   0.1481481
        k(    6) = (   0.1111111   0.1924501   0.0000000), wk =   0.1481481
        k(    7) = (   0.1111111   0.3207501   0.0000000), wk =   0.2962963
        k(    8) = (   0.1111111   0.4490502   0.0000000), wk =   0.2962963
        k(    9) = (   0.1111111   0.5773503   0.0000000), wk =   0.1481481
        k(   10) = (   0.2222222   0.3849002   0.0000000), wk =   0.1481481
        k(   11) = (   0.2222222   0.5132002   0.0000000), wk =   0.2962963
        k(   12) = (   0.3333333   0.5773503   0.0000000), wk =   0.0493827

     Dense  grid:     2183 G-vectors     FFT dimensions: (  24,  24,  12)

     Smooth grid:      571 G-vectors     FFT dimensions: (  15,  15,   8)

     Estimated max dynamical RAM per process >       3.27 MB

     Check: negative core charge=   -0.000088

     Initial potential from superposition of free atoms

     starting charge       7.9999, renormalised to       8.0000
     Starting wfcs are    8 randomized atomic wfcs

     total cpu time spent up to now is        0.5 secs

     Self-consistent Calculation

     iteration #  1     ecut=    20.00 Ry     beta= 0.70
     Davidson diagonalization with overlap
     ethr =  1.00E-02,  avg # of iterations =  2.0

     Threshold (ethr) on eigenvalues was too large:
     Diagonalizing with lowered threshold

     Davidson diagonalization with overlap
     ethr =  5.58E-04,  avg # of iterations =  1.1

     total cpu time spent up to now is        0.7 secs

     total energy              =     -37.80724334 Ry
     estimated scf accuracy    <       0.04437661 Ry

     iteration #  2     ecut=    20.00 Ry     beta= 0.70
     Davidson diagonalization with overlap
     ethr =  5.55E-04,  avg # of iterations =  2.2

     total cpu time spent up to now is        0.9 secs

     total energy              =     -37.81292439 Ry
     estimated scf accuracy    <       0.00122280 Ry

     iteration #  3     ecut=    20.00 Ry     beta= 0.70
     Davidson diagonalization with overlap
     ethr =  1.53E-05,  avg # of iterations =  2.3

     total cpu time spent up to now is        1.3 secs

     total energy              =     -37.81320325 Ry
     estimated scf accuracy    <       0.00010884 Ry

     iteration #  4     ecut=    20.00 Ry     beta= 0.70
     Davidson diagonalization with overlap
     ethr =  1.36E-06,  avg # of iterations =  2.6

     total cpu time spent up to now is        1.7 secs

     total energy              =     -37.81322233 Ry
     estimated scf accuracy    <       0.00000957 Ry

     iteration #  5     ecut=    20.00 Ry     beta= 0.70
     Davidson diagonalization with overlap
     ethr =  1.20E-07,  avg # of iterations =  2.7

     total cpu time spent up to now is        2.0 secs

     total energy              =     -37.81322419 Ry
     estimated scf accuracy    <       0.00000068 Ry

     iteration #  6     ecut=    20.00 Ry     beta= 0.70
     Davidson diagonalization with overlap
     ethr =  8.55E-09,  avg # of iterations =  2.9

     total cpu time spent up to now is        2.2 secs

     total energy              =     -37.81322442 Ry
     estimated scf accuracy    <       0.00000008 Ry

     iteration #  7     ecut=    20.00 Ry     beta= 0.70
     Davidson diagonalization with overlap
     ethr =  9.90E-10,  avg # of iterations =  1.7

     total cpu time spent up to now is        2.5 secs

     total energy              =     -37.81322442 Ry
     estimated scf accuracy    <       0.00000001 Ry

     iteration #  8     ecut=    20.00 Ry     beta= 0.70
     Davidson diagonalization with overlap
     ethr =  1.32E-10,  avg # of iterations =  3.2

     total cpu time spent up to now is        2.6 secs

     End of self-consistent calculation

          k = 0.0000 0.0000 0.0000 (    69 PWs)   bands (ev):

    -6.3614  12.3382  12.3382  22.5500

          k = 0.0000 0.1283 0.0000 (    69 PWs)   bands (ev):

    -6.0599  10.8043  11.7896  23.0597

          k = 0.0000 0.2566 0.0000 (    70 PWs)   bands (ev):

    -5.1679   7.6839  10.6732  22.2690

          k = 0.0000 0.3849 0.0000 (    72 PWs)   bands (ev):

    -3.7168   4.4115   9.6783  21.3729

          k = 0.0000 0.5132 0.0000 (    74 PWs)   bands (ev):

    -1.9009   1.6281   9.0066  20.8914

          k = 0.1111 0.1925 0.0000 (    71 PWs)   bands (ev):

    -5.4663   8.7732  10.6383  24.0076

          k = 0.1111 0.3208 0.0000 (    68 PWs)   bands (ev):

    -4.2875   5.9836   9.2227  23.4242

          k = 0.1111 0.4491 0.0000 (    71 PWs)   bands (ev):

    -2.6066   3.0086   8.2576  22.6914

          k = 0.1111 0.5774 0.0000 (    68 PWs)   bands (ev):

    -1.1475   1.0913   8.0093  22.4743

          k = 0.2222 0.3849 0.0000 (    67 PWs)   bands (ev):

    -2.8652   4.0563   7.2531  26.2283

          k = 0.2222 0.5132 0.0000 (    68 PWs)   bands (ev):

    -1.0608   1.8588   6.1619  26.1870

          k = 0.3333 0.5774 0.0000 (    69 PWs)   bands (ev):

     0.5920   0.5921   5.0926  29.7969

     highest occupied level (ev):    29.7969

!    total energy              =     -37.81322442 Ry
     total all-electron energy =      -153.341420 Ry
     estimated scf accuracy    <          1.8E-10 Ry

     The total energy is the sum of the following terms:
     one-electron contribution =      13.35552113 Ry
     hartree contribution      =       1.30732157 Ry
     xc contribution           =     -10.15657729 Ry
     ewald contribution        =     -29.80539408 Ry
     one-center paw contrib.   =     -12.51409576 Ry

     convergence has been achieved in   8 iterations

     Writing all to output data dir ./graphene.save/

     init_run     :      0.39s CPU      0.33s WALL (       1 calls)
     electrons    :      2.86s CPU      2.15s WALL (       1 calls)

     Called by init_run:
     wfcinit      :      0.08s CPU      0.03s WALL (       1 calls)
     potinit      :      0.08s CPU      0.08s WALL (       1 calls)
     hinit0       :      0.21s CPU      0.21s WALL (       1 calls)

     Called by electrons:
     c_bands      :      0.50s CPU      0.46s WALL (       9 calls)
     sum_band     :      0.14s CPU      0.12s WALL (       9 calls)
     v_of_rho     :      0.11s CPU      0.06s WALL (       9 calls)
     newd         :      0.32s CPU      0.42s WALL (       9 calls)
     PAW_pot      :      1.59s CPU      0.98s WALL (       9 calls)
     mix_rho      :      0.00s CPU      0.00s WALL (       9 calls)

     Called by c_bands:
     init_us_2    :      0.01s CPU      0.01s WALL (     228 calls)
     init_us_2:cp :      0.01s CPU      0.01s WALL (     228 calls)
     cegterg      :      0.13s CPU      0.08s WALL (     108 calls)

     Called by *egterg:
     cdiaghg      :      0.04s CPU      0.02s WALL (     345 calls)
     h_psi        :      0.13s CPU      0.06s WALL (     369 calls)
     s_psi        :      0.00s CPU      0.00s WALL (     369 calls)
     g_psi        :      0.00s CPU      0.00s WALL (     249 calls)

     Called by h_psi:
     h_psi:calbec :      0.00s CPU      0.00s WALL (     369 calls)
     vloc_psi     :      0.11s CPU      0.05s WALL (     369 calls)
     add_vuspsi   :      0.01s CPU      0.00s WALL (     369 calls)

     General routines
     calbec       :      0.01s CPU      0.00s WALL (     477 calls)
     fft          :      0.13s CPU      0.13s WALL (     116 calls)
     ffts         :      0.02s CPU      0.02s WALL (      18 calls)
     fftw         :      0.09s CPU      0.05s WALL (    2806 calls)
     interpolate  :      0.02s CPU      0.02s WALL (       9 calls)


     PWSCF        :      3.55s CPU      2.93s WALL


   This run was terminated on:  10:56:50  20Mar2025            

=------------------------------------------------------------------------------=
   JOB DONE.
=------------------------------------------------------------------------------=
